Program Version,EnergyPlus, Version 9.6.0-f420c06a69, YMD=2022.08.26 06:39
1,5,Environment Title[],Latitude[deg],Longitude[deg],Time Zone[],Elevation[m]
2,8,Day of Simulation[],Month[],Day of Month[],DST Indicator[1=yes 0=no],Hour[],StartMinute[],EndMinute[],DayType
3,5,Cumulative Day of Simulation[],Month[],Day of Month[],DST Indicator[1=yes 0=no],DayType  ! When Daily Report Variables Requested
4,2,Cumulative Days of Simulation[],Month[]  ! When Monthly Report Variables Requested
5,1,Cumulative Days of Simulation[] ! When Run Period Report Variables Requested
6,1,Calendar Year of Simulation[] ! When Annual Report Variables Requested
7,1,Environment,Site Outdoor Air Drybulb Temperature [C] !Hourly
8,1,Environment,Site Total Sky Cover [] !Hourly
9,1,Environment,Site Opaque Sky Cover [] !Hourly
10,7,Environment,Site Daylight Saving Time Status [] !Daily [Value,Min,Hour,Minute,Max,Hour,Minute]
11,7,Environment,Site Day Type Index [] !Daily [Value,Min,Hour,Minute,Max,Hour,Minute]
49,1,ZONE ONE,Zone Total Internal Latent Gain Energy [J] !Hourly
50,9,TEST 352 MINUS,Other Equipment Total Heating Energy [J] !Monthly [Value,Min,Day,Hour,Minute,Max,Day,Hour,Minute]
51,9,TEST 352A,Other Equipment Total Heating Energy [J] !Monthly [Value,Min,Day,Hour,Minute,Max,Day,Hour,Minute]
52,9,ZONE ONE,Zone Other Equipment Total Heating Energy [J] !Monthly [Value,Min,Day,Hour,Minute,Max,Day,Hour,Minute]
53,1,ZONE ONE,Zone Mean Radiant Temperature [C] !Hourly
54,7,ZN001:WALL001,Surface Inside Face Temperature [C] !Daily [Value,Min,Hour,Minute,Max,Hour,Minute]
55,7,ZN001:WALL001,Surface Outside Face Temperature [C] !Daily [Value,Min,Hour,Minute,Max,Hour,Minute]
56,7,ZN001:WALL001,Surface Inside Face Convection Heat Transfer Coefficient [W/m2-K] !Daily [Value,Min,Hour,Minute,Max,Hour,Minute]
57,7,ZN001:WALL001,Surface Outside Face Convection Heat Transfer Coefficient [W/m2-K] !Daily [Value,Min,Hour,Minute,Max,Hour,Minute]
58,7,ZN001:WALL002,Surface Inside Face Temperature [C] !Daily [Value,Min,Hour,Minute,Max,Hour,Minute]
59,7,ZN001:WALL002,Surface Outside Face Temperature [C] !Daily [Value,Min,Hour,Minute,Max,Hour,Minute]
60,7,ZN001:WALL002,Surface Inside Face Convection Heat Transfer Coefficient [W/m2-K] !Daily [Value,Min,Hour,Minute,Max,Hour,Minute]
61,7,ZN001:WALL002,Surface Outside Face Convection Heat Transfer Coefficient [W/m2-K] !Daily [Value,Min,Hour,Minute,Max,Hour,Minute]
62,7,ZN001:WALL003,Surface Inside Face Temperature [C] !Daily [Value,Min,Hour,Minute,Max,Hour,Minute]
63,7,ZN001:WALL003,Surface Outside Face Temperature [C] !Daily [Value,Min,Hour,Minute,Max,Hour,Minute]
64,7,ZN001:WALL003,Surface Inside Face Convection Heat Transfer Coefficient [W/m2-K] !Daily [Value,Min,Hour,Minute,Max,Hour,Minute]
65,7,ZN001:WALL003,Surface Outside Face Convection Heat Transfer Coefficient [W/m2-K] !Daily [Value,Min,Hour,Minute,Max,Hour,Minute]
66,7,ZN001:WALL004,Surface Inside Face Temperature [C] !Daily [Value,Min,Hour,Minute,Max,Hour,Minute]
67,7,ZN001:WALL004,Surface Outside Face Temperature [C] !Daily [Value,Min,Hour,Minute,Max,Hour,Minute]
68,7,ZN001:WALL004,Surface Inside Face Convection Heat Transfer Coefficient [W/m2-K] !Daily [Value,Min,Hour,Minute,Max,Hour,Minute]
69,7,ZN001:WALL004,Surface Outside Face Convection Heat Transfer Coefficient [W/m2-K] !Daily [Value,Min,Hour,Minute,Max,Hour,Minute]
70,7,ZN001:FLR001,Surface Inside Face Temperature [C] !Daily [Value,Min,Hour,Minute,Max,Hour,Minute]
71,7,ZN001:FLR001,Surface Outside Face Temperature [C] !Daily [Value,Min,Hour,Minute,Max,Hour,Minute]
72,7,ZN001:FLR001,Surface Inside Face Convection Heat Transfer Coefficient [W/m2-K] !Daily [Value,Min,Hour,Minute,Max,Hour,Minute]
73,7,ZN001:ROOF001,Surface Inside Face Temperature [C] !Daily [Value,Min,Hour,Minute,Max,Hour,Minute]
74,7,ZN001:ROOF001,Surface Outside Face Temperature [C] !Daily [Value,Min,Hour,Minute,Max,Hour,Minute]
75,7,ZN001:ROOF001,Surface Inside Face Convection Heat Transfer Coefficient [W/m2-K] !Daily [Value,Min,Hour,Minute,Max,Hour,Minute]
76,7,ZN001:ROOF001,Surface Outside Face Convection Heat Transfer Coefficient [W/m2-K] !Daily [Value,Min,Hour,Minute,Max,Hour,Minute]
77,1,ZONE ONE,Zone Mean Air Temperature [C] !Hourly
78,1,ZONE ONE,Zone Air Heat Balance Surface Convection Rate [W] !Hourly
79,1,ZONE ONE,Zone Air Heat Balance Air Energy Storage Rate [W] !Hourly
End of Data Dictionary
1,DENVER CENTENNIAL  GOLDEN   N ANN CLG 1% CONDNS DB=>MWB,  37.62,-122.40,  -8.00,   2.00
2,1, 7,21, 0, 1, 0.00,60.00,SummerDesignDay
7,18.966
8,1.25
9,1.25
49,0.0
53,28.569182709946052
77,28.7251760246324
78,-97.40354848119188
79,-97.31444127541752
2,1, 7,21, 0, 2, 0.00,60.00,SummerDesignDay
7,18.244
8,3.25
9,3.25
49,0.0
53,28.2883892449537
77,28.443954559151333
78,-95.14097244243774
79,-95.65308026314172
2,1, 7,21, 0, 3, 0.00,60.00,SummerDesignDay
7,17.731
8,3.375
9,3.375
49,0.0
53,28.015667760049837
77,28.170576909616507
78,-93.00321268577802
79,-93.26157976262924
2,1, 7,21, 0, 4, 0.00,60.00,SummerDesignDay
7,17.275000000000002
8,1.125
9,1.125
49,0.0
53,27.744205584487144
77,27.9003530301202
78,-93.35438564002126
79,-93.2421001359006
2,1, 7,21, 0, 5, 0.00,60.00,SummerDesignDay
7,16.913999999999998
8,1.875
9,1.875
49,0.0
53,27.475991880393202
77,27.631063294874675
78,-91.71295604015006
79,-92.08477524552497
2,1, 7,21, 0, 6, 0.00,60.00,SummerDesignDay
7,16.990000000000002
8,3.0
9,3.0
49,0.0
53,27.40958847401886
77,27.447736142337188
78,4.469926200191598
79,-20.063109693904202
2,1, 7,21, 0, 7, 0.00,60.00,SummerDesignDay
7,17.769
8,3.0
9,3.0
49,0.0
53,27.81178407230445
77,27.687281912871303
78,121.20874788464509
79,119.86459548744857
2,1, 7,21, 0, 8, 0.00,60.00,SummerDesignDay
7,19.783
8,3.0
9,3.0
49,0.0
53,28.198314426212157
77,28.04520160315267
78,129.997363791436
79,126.48990551984274
2,1, 7,21, 0, 9, 0.00,60.00,SummerDesignDay
7,22.557
8,3.0
9,3.0
49,0.0
53,28.64705969172299
77,28.470223088126122
78,164.08193168297547
79,159.61428021688587
2,1, 7,21, 0,10, 0.00,60.00,SummerDesignDay
7,25.255000000000003
8,2.375
9,2.375
49,0.0
53,29.159674035065223
77,28.971256986291806
78,172.83024343196774
79,173.84878464848558
2,1, 7,21, 0,11, 0.00,60.00,SummerDesignDay
7,27.649
8,0.75
9,0.75
49,0.0
53,29.61799391766351
77,29.452147337855898
78,154.53860177661878
79,157.48421586764928
2,1, 7,21, 0,12, 0.00,60.00,SummerDesignDay
7,29.454
8,0.0
9,0.0
49,0.0
53,29.9813953627189
77,29.85413814675802
78,118.55204325530468
79,123.64672825217923
2,1, 7,21, 0,13, 0.00,60.00,SummerDesignDay
7,30.784
8,0.0
9,0.0
49,0.0
53,30.32031511805838
77,30.18307363997215
78,122.99306058311156
79,117.296208187277
2,1, 7,21, 0,14, 0.00,60.00,SummerDesignDay
7,31.715
8,0.0
9,0.0
49,0.0
53,30.722599997865444
77,30.587096051465164
78,140.5850115234117
79,142.40117164447597
2,1, 7,21, 0,15, 0.00,60.00,SummerDesignDay
7,32.0
8,0.0
9,0.0
49,0.0
53,31.023809052863673
77,30.95254199494609
78,103.56310609981765
79,109.60689772021883
2,1, 7,21, 0,16, 0.00,60.00,SummerDesignDay
7,31.43
8,0.0
9,0.0
49,0.0
53,31.15584303840493
77,31.176607738038378
78,46.47280977307581
79,54.38744040939352
2,1, 7,21, 0,17, 0.00,60.00,SummerDesignDay
7,30.328
8,0.0
9,0.0
49,0.0
53,31.134641575992248
77,31.24199815677131
78,5.614519254871488
79,8.433467217325385
2,1, 7,21, 0,18, 0.00,60.00,SummerDesignDay
7,28.922
8,0.0
9,0.0
49,0.0
53,31.00877029340547
77,31.200465774565913
78,-47.23750252241521
79,-36.135812766531835
2,1, 7,21, 0,19, 0.00,60.00,SummerDesignDay
7,26.927
8,0.0
9,0.0
49,0.0
53,30.54348976821295
77,30.864044592467295
78,-197.88239397066462
79,-174.45842970996205
2,1, 7,21, 0,20, 0.00,60.00,SummerDesignDay
7,25.027
8,0.0
9,0.0
49,0.0
53,29.976032132374822
77,30.201164465854
78,-191.21604617397577
79,-212.10234492840965
2,1, 7,21, 0,21, 0.00,60.00,SummerDesignDay
7,23.544999999999998
8,0.0
9,0.0
49,0.0
53,29.67597296317338
77,29.81897527202092
78,-97.08082125548565
79,-99.97742512714979
2,1, 7,21, 0,22, 0.00,60.00,SummerDesignDay
7,22.177
8,0.0
9,0.0
49,0.0
53,29.406568200705244
77,29.549891334542703
78,-92.07425607596971
79,-91.6137961799282
2,1, 7,21, 0,23, 0.00,60.00,SummerDesignDay
7,20.999000000000002
8,0.0
9,0.0
49,0.0
53,29.134486674323814
77,29.280560056200972
78,-92.05059798265128
79,-92.23606732777031
2,1, 7,21, 0,24, 0.00,60.00,SummerDesignDay
7,19.935000000000002
8,0.0
9,0.0
49,0.0
53,28.856258513971866
77,29.008251496315705
78,-95.36659223281372
79,-94.79017433399676
3,1, 7,21, 0,SummerDesignDay
54,29.232977043082155,26.724518683976463, 6,15,31.66266866177803,15,45
55,27.56569996002243,15.336275063652835, 5,60,47.53748887476815,13,45
56,1.0620054183917396,0.27027199317962824,17,45,1.3176525038221414,13,60
57,9.783948072785558,9.64862721742655,16,30,10.136037761248858, 7,15
58,29.378932802535505,26.7261923446811, 6,15,31.309103552049656,16,30
59,30.17261713106286,15.500086106195578, 5,60,53.473152116035976, 9,45
60,1.0837717309862018,0.30836656147756564,17,30,1.49120393002502, 9,45
61,11.644175587984973,11.42620997198913,12,15,11.985291439584023,19,60
62,29.131191772100976,26.73355850025679, 6,15,31.314477036789185,17,60
63,25.62630563613857,15.500279489023617, 5,60,35.68380332638379,14,60
64,0.879405802204619,0.2515114417593726, 9,60,1.1881885013275575, 6,15
65,11.653537030816784,11.475183442347387,19,15,12.086613320792113, 6,45
66,29.364015587421406,26.726047807475652, 6,15,32.74323287741972,16,60
67,30.029637798865824,15.500086106195578, 5,60,61.19331386284904,17,15
68,1.0869788628844628,0.2791545034363502, 9,60,1.5062576858834409,17,15
69,11.65038915177481,11.426231511826991,19,45,12.05515726068465, 7,15
70,29.32339331999879,28.059832920541357, 7,60,30.576921419082172,19,15
71,29.3233755981409,28.059832920541357, 8,15,30.576921419082172,19,30
72,0.9675888950153938,0.19696258677127618, 8,60,1.3931898351595027, 6,15
73,29.40697819058593,27.119236578418903, 6,15,31.542863035259572,16,15
74,32.35928736076998,12.866974859903296, 5,60,61.85758056520406,13,45
75,0.81142521955402,0.2543843588551649,18,15,1.169205306430772,20,15
76,13.388993476638545,13.087086867512143,17,45,14.019543600203878,19,45
10,0.0,0, 1,15,0, 1,15
11,9.,9, 1,15,9, 1,15
4,1, 7
50,-30412800.0,-316800.0,21, 1,15,-316800.0,21, 1,15
51,30412800.0,316800.0,21, 1,15,316800.0,21, 1,15
52,0.0,0.0,21, 1,15,0.0,21, 1,15
1,DENVER CENTENNIAL  GOLDEN   N ANN HTG 99% CONDNS DB,  37.62,-122.40,  -8.00,   2.00
2,1,12,21, 0, 1, 0.00,60.00,WinterDesignDay
7,-15.5
8,1.25
9,1.25
49,0.0
53,-18.202667080615516
77,-18.205467953985355
78,-0.03386846860333792
79,-0.03393586464616713
2,1,12,21, 0, 2, 0.00,60.00,WinterDesignDay
7,-15.5
8,3.25
9,3.25
49,0.0
53,-18.202751685705344
77,-18.205550648561925
78,-0.033334293173938434
79,-0.033400627746432966
2,1,12,21, 0, 3, 0.00,60.00,WinterDesignDay
7,-15.5
8,3.375
9,3.375
49,0.0
53,-18.202834955136677
77,-18.205632038833553
78,-0.03280853058236621
79,-0.03287382035433518
2,1,12,21, 0, 4, 0.00,60.00,WinterDesignDay
7,-15.5
8,1.125
9,1.125
49,0.0
53,-18.202916909988
77,-18.205712145343377
78,-0.03229104876659328
79,-0.03235531014543274
2,1,12,21, 0, 5, 0.00,60.00,WinterDesignDay
7,-15.5
8,1.875
9,1.875
49,0.0
53,-18.202997571005422
77,-18.205790988312003
78,-0.0317817177439661
79,-0.03184496686759389
2,1,12,21, 0, 6, 0.00,60.00,WinterDesignDay
7,-15.5
8,3.0
9,3.0
49,0.0
53,-18.203076958607895
77,-18.205868587642595
78,-0.031280409534559794
79,-0.03134266229758715
2,1,12,21, 0, 7, 0.00,60.00,WinterDesignDay
7,-15.5
8,3.0
9,3.0
49,0.0
53,-18.203155092892374
77,-18.20594496292575
78,-0.030786998163078394
79,-0.030848270219578373
2,1,12,21, 0, 8, 0.00,60.00,WinterDesignDay
7,-15.5
8,3.0
9,3.0
49,0.0
53,-18.203231993638877
77,-18.206020133444422
78,-0.03030135961017022
79,-0.030361666356115136
2,1,12,21, 0, 9, 0.00,60.00,WinterDesignDay
7,-15.5
8,3.0
9,3.0
49,0.0
53,-18.203307680315486
77,-18.206094118178697
78,-0.029823371793992415
79,-0.029882728405402587
2,1,12,21, 0,10, 0.00,60.00,WinterDesignDay
7,-15.5
8,2.375
9,2.375
49,0.0
53,-18.20338217208325
77,-18.206166935810494
78,-0.02935291453567146
79,-0.029411335929812855
2,1,12,21, 0,11, 0.00,60.00,WinterDesignDay
7,-15.5
8,0.75
9,0.75
49,0.0
53,-18.203455487801005
77,-18.20623860472825
78,-0.028889869529864054
79,-0.028947370410292626
2,1,12,21, 0,12, 0.00,60.00,WinterDesignDay
7,-15.5
8,0.0
9,0.0
49,0.0
53,-18.203527646030185
77,-18.20630914303148
78,-0.028434120322667233
79,-0.0284907151452034
2,1,12,21, 0,13, 0.00,60.00,WinterDesignDay
7,-15.5
8,0.0
9,0.0
49,0.0
53,-18.203598665039422
77,-18.206378568535282
78,-0.02798555227004096
79,-0.028041255269810286
2,1,12,21, 0,14, 0.00,60.00,WinterDesignDay
7,-15.5
8,0.0
9,0.0
49,0.0
53,-18.20366856280924
77,-18.206446898774818
78,-0.027544052518359674
79,-0.027598877726623484
2,1,12,21, 0,15, 0.00,60.00,WinterDesignDay
7,-15.5
8,0.0
9,0.0
49,0.0
53,-18.20373735703653
77,-18.20651415100961
78,-0.027109509980723256
79,-0.027163471180555027
2,1,12,21, 0,16, 0.00,60.00,WinterDesignDay
7,-15.5
8,0.0
9,0.0
49,0.0
53,-18.20380506513906
77,-18.206580342227923
78,-0.02668181529812852
79,-0.02673492608873647
2,1,12,21, 0,17, 0.00,60.00,WinterDesignDay
7,-15.5
8,0.0
9,0.0
49,0.0
53,-18.20387170425984
77,-18.206645489150944
78,-0.026260860829179222
79,-0.02631313456474728
2,1,12,21, 0,18, 0.00,60.00,WinterDesignDay
7,-15.5
8,0.0
9,0.0
49,0.0
53,-18.20393729127147
77,-18.206709608236977
78,-0.025846540607941115
79,-0.025897990456334702
2,1,12,21, 0,19, 0.00,60.00,WinterDesignDay
7,-15.5
8,0.0
9,0.0
49,0.0
53,-18.204001842780386
77,-18.20677271568558
78,-0.02543875032452103
79,-0.02548938924685759
2,1,12,21, 0,20, 0.00,60.00,WinterDesignDay
7,-15.5
8,0.0
9,0.0
49,0.0
53,-18.204065375131094
77,-18.20683482744156
78,-0.025037387307895287
79,-0.025087228049708105
2,1,12,21, 0,21, 0.00,60.00,WinterDesignDay
7,-15.5
8,0.0
9,0.0
49,0.0
53,-18.20412790441021
77,-18.206895959198995
78,-0.024642350484950448
79,-0.024691405598592495
2,1,12,21, 0,22, 0.00,60.00,WinterDesignDay
7,-15.5
8,0.0
9,0.0
49,0.0
53,-18.20418944645062
77,-18.20695612640513
78,-0.02425354036711269
79,-0.024301822213737598
2,1,12,21, 0,23, 0.00,60.00,WinterDesignDay
7,-15.5
8,0.0
9,0.0
49,0.0
53,-18.204250016835406
77,-18.207015344264292
78,-0.023870859012538048
79,-0.023918379757767852
2,1,12,21, 0,24, 0.00,60.00,WinterDesignDay
7,-15.5
8,0.0
9,0.0
49,0.0
53,-18.20430963090183
77,-18.207073627741586
78,-0.02349421002633667
79,-0.023540981642304313
3,1,12,21, 0,WinterDesignDay
54,-18.139994909634066,-18.140726899268014,24,60,-18.13916586475341, 1,15
55,-17.463346228587437,-17.463374841173906,24,60,-17.463313822315293, 1,15
56,0.5301377883461001,0.5299992081817811, 1,15,0.5302602738466172,24,60
57,7.1514515291863106,7.1514505994222315,24,60,7.151452582248322, 1,15
58,-18.139169837459143,-18.13990103111399,24,60,-18.138341694352828, 1,15
59,-17.46331328648272,-17.463341869311492,24,60,-17.46328091392417, 1,15
60,0.5323270770123202,0.5321872412514709, 1,15,0.5324506685786857,24,60
61,7.151452595395008,7.151451666565362,24,60,7.151453647398311, 1,15
62,-18.135796141438593,-18.136528191265363,24,60,-18.134967028545088, 1,15
63,-17.41712322555365,-17.41715119276025,24,60,-17.417091550230356, 1,15
64,0.5410972125452649,0.5409643652962169, 1,15,0.5412146331114935,24,60
65,7.416433768258984,7.416432678158005,24,60,7.416435002917359, 1,15
66,-18.13492348565491,-18.135654743319474,24,60,-18.13409527021292, 1,15
67,-17.417089181244,-17.41711711950163,24,60,-17.417057538718083, 1,15
68,0.5433199645272321,0.543185915806467, 1,15,0.5434384435157339,24,60
69,7.416435089971215,7.416434000963092,24,60,7.416436323391386, 1,15
70,-18.210069890779476,-18.210960394150625,24,60,-18.20906127437262, 1,15
71,-18.21004985771326,-18.210943911691746,24,60,-18.209037219793867, 1,15
72,0.1180478408614954,0.11669056663381654, 1,15,0.11922831941559557,24,60
73,-18.277029885594267,-18.27780810996842,24,60,-18.2761484733523, 1,15
74,-20.305692663610316,-20.305704280570183,24,60,-20.30567950629622, 1,15
75,0.6285691496830162,0.6285674444689132, 1,15,0.6285704618526208,24,60
76,8.618883406328075,8.618883101367894,24,60,8.618883751725107, 1,15
10,0.0,0, 1,15,0, 1,15
11,10.,10, 1,15,10, 1,15
4,1,12
50,-30412800.0,-316800.0,21, 1,15,-316800.0,21, 1,15
51,30412800.0,316800.0,21, 1,15,316800.0,21, 1,15
52,0.0,0.0,21, 1,15,0.0,21, 1,15
1,RUN PERIOD 1,  37.62,-122.40,  -8.00,   2.00
2,1, 1, 1, 0, 1, 0.00,60.00,Tuesday
7,7.0125
8,1.25
9,1.25
49,0.0
53,12.156141823930975
77,12.294618297875177
78,-82.75100146882846
79,-79.84053162662087
2,1, 1, 1, 0, 2, 0.00,60.00,Tuesday
7,7.2
8,3.25
9,3.25
49,0.0
53,12.045256775408639
77,12.12505990161403
78,-28.43592611108688
79,-38.92794249358331
2,1, 1, 1, 0, 3, 0.00,60.00,Tuesday
7,6.8875
8,3.375
9,3.375
49,0.0
53,11.93168670116709
77,12.037409396325693
78,-51.1193603479707
79,-43.94487480431541
2,1, 1, 1, 0, 4, 0.00,60.00,Tuesday
7,6.324999999999999
8,1.125
9,1.125
49,0.0
53,11.704812437951915
77,11.847206547015434
78,-87.91456027822528
79,-83.53247746267262
2,1, 1, 1, 0, 5, 0.00,60.00,Tuesday
7,5.0375
8,1.875
9,1.875
49,0.0
53,11.482316846220195
77,11.613279227602002
78,-76.6545346346343
79,-80.09497686830468
2,1, 1, 1, 0, 6, 0.00,60.00,Tuesday
7,4.4
8,3.0
9,3.0
49,0.0
53,11.277622483840304
77,11.409570272939026
78,-74.96113149006192
79,-74.69272954302946
2,1, 1, 1, 0, 7, 0.00,60.00,Tuesday
7,5.4624999999999995
8,3.0
9,3.0
49,0.0
53,11.090600046511915
77,11.215737905861953
78,-67.32630381954519
79,-68.48767494062902
2,1, 1, 1, 0, 8, 0.00,60.00,Tuesday
7,5.4125
8,3.0
9,3.0
49,0.0
53,11.241143965418944
77,11.146440438525298
78,93.76061354565863
79,48.062671398203406
2,1, 1, 1, 0, 9, 0.00,60.00,Tuesday
7,6.750000000000001
8,3.0
9,3.0
49,0.0
53,12.352794280251858
77,11.829220663100081
78,487.9817187502456
79,406.69513836971953
2,1, 1, 1, 0,10, 0.00,60.00,Tuesday
7,8.487499999999999
8,2.375
9,2.375
49,0.0
53,13.22552766910424
77,12.70316301760979
78,610.1799461918674
79,506.28695555705696
2,1, 1, 1, 0,11, 0.00,60.00,Tuesday
7,9.2125
8,0.75
9,0.75
49,0.0
53,13.723864312381506
77,13.644966701729889
78,252.70699215464055
79,300.32359573801074
2,1, 1, 1, 0,12, 0.00,60.00,Tuesday
7,9.775
8,0.0
9,0.0
49,0.0
53,13.942122979908238
77,14.007788566639299
78,71.19037705467083
79,73.79804860157245
2,1, 1, 1, 0,13, 0.00,60.00,Tuesday
7,10.375
8,0.0
9,0.0
49,0.0
53,14.193014219775828
77,14.208351301102903
78,96.36285532204448
79,87.22638982491752
2,1, 1, 1, 0,14, 0.00,60.00,Tuesday
7,10.9125
8,0.0
9,0.0
49,0.0
53,14.732599314129518
77,14.638466180616042
78,214.21458789033636
79,200.82659759054718
2,1, 1, 1, 0,15, 0.00,60.00,Tuesday
7,12.85
8,0.0
9,0.0
49,0.0
53,15.222039578777363
77,15.240187018497013
78,173.95671963475797
79,194.70440659996015
2,1, 1, 1, 0,16, 0.00,60.00,Tuesday
7,13.9
8,0.0
9,0.0
49,0.0
53,14.875450032622384
77,15.282655014332438
78,-184.5786732561375
79,-128.4557442330067
2,1, 1, 1, 0,17, 0.00,60.00,Tuesday
7,12.15
8,0.0
9,0.0
49,0.0
53,13.89301353141564
77,14.385655511003312
78,-365.85141573601646
79,-378.7207418050736
2,1, 1, 1, 0,18, 0.00,60.00,Tuesday
7,11.1
8,0.0
9,0.0
49,0.0
53,13.476688985025064
77,13.667120372253228
78,-154.91237719962385
79,-177.21160617603235
2,1, 1, 1, 0,19, 0.00,60.00,Tuesday
7,10.7875
8,0.0
9,0.0
49,0.0
53,13.255873480793134
77,13.375284912260005
78,-77.32905771679718
79,-81.50586489839628
2,1, 1, 1, 0,20, 0.00,60.00,Tuesday
7,10.6
8,0.0
9,0.0
49,0.0
53,13.133944717233001
77,13.215994838510667
78,-40.11054077857709
79,-44.63684912973871
2,1, 1, 1, 0,21, 0.00,60.00,Tuesday
7,9.5375
8,0.0
9,0.0
49,0.0
53,12.959495434443488
77,13.080254217516853
78,-70.8573907299276
79,-63.57948384564101
2,1, 1, 1, 0,22, 0.00,60.00,Tuesday
7,9.2125
8,0.0
9,0.0
49,0.0
53,12.799607154970165
77,12.895816457839217
78,-50.97015664228034
79,-57.39703611533907
2,1, 1, 1, 0,23, 0.00,60.00,Tuesday
7,8.4
8,0.0
9,0.0
49,0.0
53,12.595361787173218
77,12.731611861605609
78,-83.02994647880419
79,-74.83319110869039
2,1, 1, 1, 0,24, 0.00,60.00,Tuesday
7,7.1125
8,0.0
9,0.0
49,0.0
53,12.373195431843184
77,12.499942016739986
78,-75.49911070262893
79,-79.78339697357376
3,1, 1, 1, 0,Tuesday
54,13.321665498593076,10.52016804786743, 8,15,17.5011331459055,15,30
55,20.34440672059549,2.8970692905998576, 6,60,56.37716413279729,15,30
56,1.2289355087293814,0.771887813828257,17,15,1.7996076486222936,11,15
57,5.0032837850778735,1.6391761750317222, 8,45,7.707228608909868, 5,60
58,12.91621103292366,10.514446947485364, 8,15,15.388949846885554,15,60
59,13.324147925742025,2.896423826429027, 6,60,44.93307697686021,10,30
60,1.0488804042551028,0.3052802306687276, 8,45,1.7109584017125596,10,15
61,4.725355059428211,1.699747250595139, 8,15,7.500410455936123,17,30
62,12.658940144019875,10.519869695341606, 8,15,15.386527137582782,15,60
63,9.041928632933734,2.9476415478533626, 6,60,18.656523842317043,15,45
64,0.9067344139971577,0.3033568806770627,11,60,1.1527276502544497,17,45
65,4.414874901955977,0.8497184485188648, 9,30,7.864694539815519,17,30
66,12.83035357076001,10.514729400749466, 8,15,17.065966529656865,15,60
67,11.897153057369051,2.8968179542989465, 6,60,46.202726908316826,15,60
68,0.9926836538994358,0.16933659775011492,12,45,1.5834624521118659,15,45
69,4.581118604996583,0.8504594751646847, 9,30,7.821374991208515,16,60
70,12.897287874712118,11.693923391785532, 8,60,13.99530643973586,17,15
71,12.897303448943163,11.693923391785532, 9,15,13.99530643973586,17,30
72,1.0330692578502774,0.13060513621324732, 9,45,1.3077156311199634, 8,30
73,12.868349245144033,10.713570982472353, 8,15,15.564015058561079,15,30
74,10.695545367084302,-2.9423749940204296, 8,30,34.862718951722286,14,45
75,0.8808720516647819,0.2165124308403949, 9,15,1.3002306317097188,17,45
76,5.214844288633004,1.158037127811768, 9,15,8.987352545978684,17,30
10,0.0,0, 1,15,0, 1,15
11,3.,3, 1,15,3, 1,15
2,2, 1, 2, 0, 1, 0.00,60.00,Wednesday
7,8.075000000000001
8,0.0
9,0.0
49,0.0
53,12.286490661511147
77,12.357736266462865
78,-23.10444641295488
79,-31.27690547343708
2,2, 1, 2, 0, 2, 0.00,60.00,Wednesday
7,7.15
8,1.25
9,0.625
49,0.0
53,12.012738511743553
77,12.197928403332515
78,-126.08729226911953
79,-103.8798093842882
2,2, 1, 2, 0, 3, 0.00,60.00,Wednesday
7,5.7875
8,1.375
9,1.0
49,0.0
53,11.677935383284806
77,11.838033879056406
78,-106.18932112143932
79,-118.1593770022213
2,2, 1, 2, 0, 4, 0.00,60.00,Wednesday
7,4.5375
8,2.25
9,2.25
49,0.0
53,11.395244793677099
77,11.563635334701072
78,-105.64440965577722
79,-102.47380155232734
2,2, 1, 2, 0, 5, 0.00,60.00,Wednesday
7,4.9624999999999995
8,1.125
9,1.125
49,0.0
53,11.244773912774026
77,11.346059114847748
78,-38.75777110548704
79,-51.757013257250875
2,2, 1, 2, 0, 6, 0.00,60.00,Wednesday
7,6.6
8,0.0
9,0.0
49,0.0
53,11.258826071874168
77,11.31144313936467
78,3.3882209151702494
79,1.1709811210513261
2,2, 1, 2, 0, 7, 0.00,60.00,Wednesday
7,7.575
8,0.0
9,0.0
49,0.0
53,11.25687314743874
77,11.312777037173731
78,-8.49561488521936
79,-5.356048121145159
2,2, 1, 2, 0, 8, 0.00,60.00,Wednesday
7,7.425
8,0.0
9,0.0
49,0.0
53,11.329987624570897
77,11.306530782293649
78,31.154441324100965
79,17.413097456514596
2,2, 1, 2, 0, 9, 0.00,60.00,Wednesday
7,9.325000000000001
8,0.0
9,0.0
49,0.0
53,11.900996849861862
77,11.625450026363996
78,199.9494905306413
79,180.41137609220632
2,2, 1, 2, 0,10, 0.00,60.00,Wednesday
7,11.287499999999998
8,0.0
9,0.0
49,0.0
53,12.51431539004139
77,12.283352102409006
78,250.02780963347004
79,254.68742724632938
2,2, 1, 2, 0,11, 0.00,60.00,Wednesday
7,13.075
8,0.625
9,0.0
49,0.0
53,13.10081785052077
77,12.915827072570416
78,238.8902161921087
79,229.77527302972464
2,2, 1, 2, 0,12, 0.00,60.00,Wednesday
7,13.9
8,1.625
9,0.625
49,0.0
53,13.617843893387793
77,13.54985652883316
78,180.54718772749493
79,202.67955080301786
2,2, 1, 2, 0,13, 0.00,60.00,Wednesday
7,13.9
8,2.0
9,1.0
49,0.0
53,14.241903779565863
77,14.086482550736566
78,262.0368738563965
79,236.49773407049923
2,2, 1, 2, 0,14, 0.00,60.00,Wednesday
7,13.9
8,2.0
9,1.0
49,0.0
53,14.53544504048235
77,14.609137869429151
78,68.8032921523749
79,104.99393652643049
2,2, 1, 2, 0,15, 0.00,60.00,Wednesday
7,12.837499999999999
8,2.0
9,1.0
49,0.0
53,14.57893968431669
77,14.721830082460183
78,27.285745706881222
79,30.08147590107334
2,2, 1, 2, 0,16, 0.00,60.00,Wednesday
7,12.575
8,1.375
9,1.0
49,0.0
53,14.32784394255088
77,14.639144132662377
78,-125.96631956572682
79,-93.59808545819982
2,2, 1, 2, 0,17, 0.00,60.00,Wednesday
7,11.7375
8,1.0
9,0.375
49,0.0
53,13.510858722779478
77,13.94231193470574
78,-308.93024878419766
79,-313.6288284900413
2,2, 1, 2, 0,18, 0.00,60.00,Wednesday
7,10.7875
8,2.25
9,1.25
49,0.0
53,13.097816071898428
77,13.3037690285633
78,-164.5431228075331
79,-175.03889935943886
2,2, 1, 2, 0,19, 0.00,60.00,Wednesday
7,11.287499999999998
8,1.125
9,0.75
49,0.0
53,12.854524256080532
77,12.969250720793058
78,-76.22550100843594
79,-88.77193049642399
2,2, 1, 2, 0,20, 0.00,60.00,Wednesday
7,11.7
8,0.0
9,0.0
49,0.0
53,12.789410473628593
77,12.845727832738525
78,-18.378373332653467
79,-24.20274252312058
2,2, 1, 2, 0,21, 0.00,60.00,Wednesday
7,10.6375
8,0.0
9,0.0
49,0.0
53,12.668106020249422
77,12.769844625757283
78,-53.97380332083246
79,-44.588093454337596
2,2, 1, 2, 0,22, 0.00,60.00,Wednesday
7,9.3125
8,0.0
9,0.0
49,0.0
53,12.394837844598234
77,12.548751728445989
78,-104.28805838572794
79,-99.21543011982953
2,2, 1, 2, 0,23, 0.00,60.00,Wednesday
7,9.2125
8,0.0
9,0.0
49,0.0
53,12.184861976975114
77,12.29846568417588
78,-64.80813430101585
79,-73.52396315859505
2,2, 1, 2, 0,24, 0.00,60.00,Wednesday
7,9.0875
8,0.0
9,0.0
49,0.0
53,12.014462028628735
77,12.133355339752802
78,-65.0350480096253
79,-62.24700157904469
3,2, 1, 2, 0,Wednesday
54,12.919774951766703,10.733591486288288, 4,60,16.88077805082764,13,60
55,17.87535356527869,1.4700556667943707, 4,60,58.66927635948966,13,45
56,1.1642857286445938,0.40460983740180234, 8,60,1.8061209587958567,13,45
57,6.017851805469242,1.6148853290868703, 2,60,14.152359744032943, 9,60
58,12.555779239764798,10.726908730244459, 4,60,14.862360285940332,14,15
59,11.655159453604545,1.46965873681363, 4,60,29.812693970165736,10,30
60,1.0174578531776606,0.14078024186838586,15,45,1.4046469258375982,10,45
61,5.76544217084867,1.6730868380510953, 4,60,14.13312164012794, 9,60
62,12.419438147305277,10.732163856263561, 5,15,14.857678089839169,14,15
63,9.438337957800265,1.470055670891647, 4,60,21.229537371730046,13,60
64,0.9310985772002338,0.19694756658209037,15,45,1.1747789904922483, 5,15
65,5.4254116219391095,1.6729839698864815, 4,60,11.743808796572345, 9,60
66,12.563960563183306,10.725704258902041, 5,15,15.924201825118322,15,30
67,11.781815140410165,1.4696587326910895, 4,60,36.80859079741131,15,60
68,1.0060571616902474,0.4354598891453448, 9,45,1.3950374840316002,15,45
69,5.5747433424910815,1.614952937274906, 2,60,11.743959054915212, 9,60
70,12.672865544444184,11.671817212644383, 8,60,13.625041246099856,16,60
71,12.676736037811267,11.671817212644383, 9,15,13.625041246099856,17,15
72,1.0256475848760722,0.2794978838524753,18,15,1.3961371239022207, 5,30
73,12.555599684402926,10.989029343881297, 5,30,14.973808423904998,13,60
74,9.13115938549428,-4.783254178246961, 4,60,39.31696187437103,13,45
75,0.8718519738528886,0.25851255285695895,15,60,1.256928715573397,17,45
76,6.615827773941596,1.4581498623244746,18,60,16.770449033861116, 9,45
10,0.0,0, 1,15,0, 1,15
11,4.,4, 1,15,4, 1,15
2,3, 1, 3, 0, 1, 0.00,60.00,Thursday
7,9.2125
8,0.0
9,0.0
49,0.0
53,11.98225291901775
77,12.026155136078067
78,-1.0978056144078199
79,-12.489623545917699
2,3, 1, 3, 0, 2, 0.00,60.00,Thursday
7,9.775
8,0.0
9,0.0
49,0.0
53,12.029789163342299
77,12.054100188975212
78,10.07510250555582
79,11.887584563199336
2,3, 1, 3, 0, 3, 0.00,60.00,Thursday
7,11.375
8,0.0
9,0.0
49,0.0
53,12.031326714198007
77,12.067025369702465
78,-4.680238067380439
79,-1.342963597633654
2,3, 1, 3, 0, 4, 0.00,60.00,Thursday
7,13.2625
8,0.0
9,0.0
49,0.0
53,12.199787902238263
77,12.11206742164227
78,48.03109043712954
79,37.92508992955235
2,3, 1, 3, 0, 5, 0.00,60.00,Thursday
7,13.212500000000002
8,0.0
9,0.0
49,0.0
53,12.256533244616874
77,12.221283824399642
78,18.968312938097878
79,26.53534895781113
2,3, 1, 3, 0, 6, 0.00,60.00,Thursday
7,12.425
8,0.0
9,0.0
49,0.0
53,12.191137664490316
77,12.223991060332228
78,-12.95470048812328
79,-10.288624782841513
2,3, 1, 3, 0, 7, 0.00,60.00,Thursday
7,11.5125
8,0.0
9,0.0
49,0.0
53,12.09401062834138
77,12.159328032177037
78,-33.93640382946905
79,-31.407506208183634
2,3, 1, 3, 0, 8, 0.00,60.00,Thursday
7,11.1
8,0.0
9,0.0
49,0.0
53,12.123589805195062
77,12.095894733741549
78,12.880707012351634
79,-1.5120351322461403
2,3, 1, 3, 0, 9, 0.00,60.00,Thursday
7,11.474999999999998
8,0.0
9,0.0
49,0.0
53,12.59086879538602
77,12.350096549553813
78,183.20187958968603
79,159.52241175238652
2,3, 1, 3, 0,10, 0.00,60.00,Thursday
7,12.7
8,0.0
9,0.0
49,0.0
53,13.307697749319349
77,13.04364062004908
78,299.892544595874
79,293.17417800543285
2,3, 1, 3, 0,11, 0.00,60.00,Thursday
7,12.6125
8,0.0
9,0.0
49,0.0
53,13.718072291754297
77,13.697628928716256
78,133.26215937861826
79,167.60486586327437
2,3, 1, 3, 0,12, 0.00,60.00,Thursday
7,13.95
8,0.625
9,0.625
49,0.0
53,14.0787920736168
77,13.987631128099697
78,148.8687402743755
79,123.8737079632663
2,3, 1, 3, 0,13, 0.00,60.00,Thursday
7,15.375000000000002
8,2.25
9,1.625
49,0.0
53,14.629594333176302
77,14.519603672849154
78,206.7527190010462
79,210.72170953563952
2,3, 1, 3, 0,14, 0.00,60.00,Thursday
7,15.912500000000001
8,2.375
9,1.375
49,0.0
53,15.223435197572059
77,15.128107449512301
78,220.84208264750953
79,223.8769195476233
2,3, 1, 3, 0,15, 0.00,60.00,Thursday
7,16.1
8,1.375
9,1.0
49,0.0
53,15.296690505923763
77,15.459865031344954
78,-0.043810558567574986
79,31.305178110597797
2,3, 1, 3, 0,16, 0.00,60.00,Thursday
7,14.725
8,1.625
9,1.0
49,0.0
53,14.881987214153806
77,15.23238886043112
78,-174.64904092090197
79,-147.45325927816577
2,3, 1, 3, 0,17, 0.00,60.00,Thursday
7,13.9
8,2.0
9,1.625
49,0.0
53,14.052859030643983
77,14.477615641201304
78,-312.06789956235525
79,-318.97141962519953
2,3, 1, 3, 0,18, 0.00,60.00,Thursday
7,13.212500000000002
8,1.375
9,1.375
49,0.0
53,13.771712714325616
77,13.897176680668943
78,-99.33499397609154
79,-124.76549580595939
2,3, 1, 3, 0,19, 0.00,60.00,Thursday
7,12.425
8,1.0
9,1.0
49,0.0
53,13.627209276357492