Program Version,EnergyPlus, Version 9.6.0-f420c06a69, YMD=2022.08.26 06:39
1,5,Environment Title[],Latitude[deg],Longitude[deg],Time Zone[],Elevation[m]
2,8,Day of Simulation[],Month[],Day of Month[],DST Indicator[1=yes 0=no],Hour[],StartMinute[],EndMinute[],DayType
3,5,Cumulative Day of Simulation[],Month[],Day of Month[],DST Indicator[1=yes 0=no],DayType  ! When Daily Report Variables Requested
4,2,Cumulative Days of Simulation[],Month[]  ! When Monthly Report Variables Requested
5,1,Cumulative Days of Simulation[] ! When Run Period Report Variables Requested
6,1,Calendar Year of Simulation[] ! When Annual Report Variables Requested
7,1,Environment,Site Outdoor Air Drybulb Temperature [C] !Hourly
8,1,Environment,Site Total Sky Cover [] !Hourly
9,1,Environment,Site Opaque Sky Cover [] !Hourly
10,7,Environment,Site Daylight Saving Time Status [] !Daily [Value,Min,Hour,Minute,Max,Hour,Minute]
11,7,Environment,Site Day Type Index [] !Daily [Value,Min,Hour,Minute,Max,Hour,Minute]
49,1,ZONE ONE,Zone Total Internal Latent Gain Energy [J] !Hourly
50,9,TEST 352 MINUS,Other Equipment Total Heating Energy [J] !Monthly [Value,Min,Day,Hour,Minute,Max,Day,Hour,Minute]
51,9,TEST 352A,Other Equipment Total Heating Energy [J] !Monthly [Value,Min,Day,Hour,Minute,Max,Day,Hour,Minute]
52,9,ZONE ONE,Zone Other Equipment Total Heating Energy [J] !Monthly [Value,Min,Day,Hour,Minute,Max,Day,Hour,Minute]
53,1,ZONE ONE,Zone Mean Radiant Temperature [C] !Hourly
54,7,ZN001:WALL001,Surface Inside Face Temperature [C] !Daily [Value,Min,Hour,Minute,Max,Hour,Minute]
55,7,ZN001:WALL001,Surface Outside Face Temperature [C] !Daily [Value,Min,Hour,Minute,Max,Hour,Minute]
56,7,ZN001:WALL001,Surface Inside Face Convection Heat Transfer Coefficient [W/m2-K] !Daily [Value,Min,Hour,Minute,Max,Hour,Minute]
57,7,ZN001:WALL001,Surface Outside Face Convection Heat Transfer Coefficient [W/m2-K] !Daily [Value,Min,Hour,Minute,Max,Hour,Minute]
58,7,ZN001:WALL002,Surface Inside Face Temperature [C] !Daily [Value,Min,Hour,Minute,Max,Hour,Minute]
59,7,ZN001:WALL002,Surface Outside Face Temperature [C] !Daily [Value,Min,Hour,Minute,Max,Hour,Minute]
60,7,ZN001:WALL002,Surface Inside Face Convection Heat Transfer Coefficient [W/m2-K] !Daily [Value,Min,Hour,Minute,Max,Hour,Minute]
61,7,ZN001:WALL002,Surface Outside Face Convection Heat Transfer Coefficient [W/m2-K] !Daily [Value,Min,Hour,Minute,Max,Hour,Minute]
62,7,ZN001:WALL003,Surface Inside Face Temperature [C] !Daily [Value,Min,Hour,Minute,Max,Hour,Minute]
63,7,ZN001:WALL003,Surface Outside Face Temperature [C] !Daily [Value,Min,Hour,Minute,Max,Hour,Minute]
64,7,ZN001:WALL003,Surface Inside Face Convection Heat Transfer Coefficient [W/m2-K] !Daily [Value,Min,Hour,Minute,Max,Hour,Minute]
65,7,ZN001:WALL003,Surface Outside Face Convection Heat Transfer Coefficient [W/m2-K] !Daily [Value,Min,Hour,Minute,Max,Hour,Minute]
66,7,ZN001:WALL004,Surface Inside Face Temperature [C] !Daily [Value,Min,Hour,Minute,Max,Hour,Minute]
67,7,ZN001:WALL004,Surface Outside Face Temperature [C] !Daily [Value,Min,Hour,Minute,Max,Hour,Minute]
68,7,ZN001:WALL004,Surface Inside Face Convection Heat Transfer Coefficient [W/m2-K] !Daily [Value,Min,Hour,Minute,Max,Hour,Minute]
69,7,ZN001:WALL004,Surface Outside Face Convection Heat Transfer Coefficient [W/m2-K] !Daily [Value,Min,Hour,Minute,Max,Hour,Minute]
70,7,ZN001:FLR001,Surface Inside Face Temperature [C] !Daily [Value,Min,Hour,Minute,Max,Hour,Minute]
71,7,ZN001:FLR001,Surface Outside Face Temperature [C] !Daily [Value,Min,Hour,Minute,Max,Hour,Minute]
72,7,ZN001:FLR001,Surface Inside Face Convection Heat Transfer Coefficient [W/m2-K] !Daily [Value,Min,Hour,Minute,Max,Hour,Minute]
73,7,ZN001:ROOF001,Surface Inside Face Temperature [C] !Daily [Value,Min,Hour,Minute,Max,Hour,Minute]
74,7,ZN001:ROOF001,Surface Outside Face Temperature [C] !Daily [Value,Min,Hour,Minute,Max,Hour,Minute]
75,7,ZN001:ROOF001,Surface Inside Face Convection Heat Transfer Coefficient [W/m2-K] !Daily [Value,Min,Hour,Minute,Max,Hour,Minute]
76,7,ZN001:ROOF001,Surface Outside Face Convection Heat Transfer Coefficient [W/m2-K] !Daily [Value,Min,Hour,Minute,Max,Hour,Minute]
77,1,ZONE ONE,Zone Mean Air Temperature [C] !Hourly
78,1,ZONE ONE,Zone Air Heat Balance Surface Convection Rate [W] !Hourly
79,1,ZONE ONE,Zone Air Heat Balance Air Energy Storage Rate [W] !Hourly
End of Data Dictionary
1,DENVER CENTENNIAL  GOLDEN   N ANN CLG 1% CONDNS DB=>MWB,  37.62,-122.40,  -8.00,   2.00
2,1, 7,21, 0, 1, 0.00,60.00,SummerDesignDay
7,18.966
8,1.25
9,1.25
49,0.0
53,27.966605731089803
77,28.132722957520365
78,-88.62243142861877
79,-88.55777168172182
2,1, 7,21, 0, 2, 0.00,60.00,SummerDesignDay
7,18.244
8,3.25
9,3.25
49,0.0
53,27.66632785367369
77,27.832198584331703
78,-86.28491661908319
79,-86.79396389954228
2,1, 7,21, 0, 3, 0.00,60.00,SummerDesignDay
7,17.731
8,3.375
9,3.375
49,0.0
53,27.375689292225147
77,27.540957923606566
78,-84.13748717858685
79,-84.39870377336925
2,1, 7,21, 0, 4, 0.00,60.00,SummerDesignDay
7,17.275000000000002
8,1.125
9,1.125
49,0.0
53,27.086979578241124
77,27.253582172788818
78,-84.38876841945111
79,-84.29402601336916
2,1, 7,21, 0, 5, 0.00,60.00,SummerDesignDay
7,16.913999999999998
8,1.875
9,1.875
49,0.0
53,26.802261367964885
77,26.96764953060297
78,-82.68524429630116
79,-83.05554185758355
2,1, 7,21, 0, 6, 0.00,60.00,SummerDesignDay
7,16.990000000000002
8,3.0
9,3.0
49,0.0
53,26.726436901997275
77,26.774139165815726
78,3.9182488019540287
79,-17.918754918589162
2,1, 7,21, 0, 7, 0.00,60.00,SummerDesignDay
7,17.769
8,3.0
9,3.0
49,0.0
53,27.124251622404877
77,27.016991442499293
78,101.41042702064874
79,101.51060760251642
2,1, 7,21, 0, 8, 0.00,60.00,SummerDesignDay
7,19.783
8,3.0
9,3.0
49,0.0
53,27.500876848237162
77,27.35651966945233
78,102.50256399791144
79,100.06814691366174
2,1, 7,21, 0, 9, 0.00,60.00,SummerDesignDay
7,22.557
8,3.0
9,3.0
49,0.0
53,27.97268090198561
77,27.77007952018084
78,146.74969530876461
79,139.01718863099302
2,1, 7,21, 0,10, 0.00,60.00,SummerDesignDay
7,25.255000000000003
8,2.375
9,2.375
49,0.0
53,28.556594342312064
77,28.334504274338627
78,173.322049868959
79,173.0835310705933
2,1, 7,21, 0,11, 0.00,60.00,SummerDesignDay
7,27.649
8,0.75
9,0.75
49,0.0
53,29.101624804622407
77,28.911118537772506
78,159.39216747753022
79,162.00452659487053
2,1, 7,21, 0,12, 0.00,60.00,SummerDesignDay
7,29.454
8,0.0
9,0.0
49,0.0
53,29.551271897753857
77,29.406173716576966
78,126.48073457578913
79,131.1947453397145
2,1, 7,21, 0,13, 0.00,60.00,SummerDesignDay
7,30.784
8,0.0
9,0.0
49,0.0
53,29.950684616620862
77,29.811731391159228
78,120.55737332230642
79,117.78719878113712
2,1, 7,21, 0,14, 0.00,60.00,SummerDesignDay
7,31.715
8,0.0
9,0.0
49,0.0
53,30.36582920312281
77,30.24214956744722
78,120.17003920425624
79,123.10509080613298
2,1, 7,21, 0,15, 0.00,60.00,SummerDesignDay
7,32.0
8,0.0
9,0.0
49,0.0
53,30.653990528079646
77,30.593687906816687
78,79.58939427789707
79,85.75289280386642
2,1, 7,21, 0,16, 0.00,60.00,SummerDesignDay
7,31.43
8,0.0
9,0.0
49,0.0
53,30.743342590811082
77,30.773397434839918
78,22.592774542230316
79,30.259932789521052
2,1, 7,21, 0,17, 0.00,60.00,SummerDesignDay
7,30.328
8,0.0
9,0.0
49,0.0
53,30.679951224962192
77,30.779867251163786
78,-8.644302114511811
79,-7.958845632587153
2,1, 7,21, 0,18, 0.00,60.00,SummerDesignDay
7,28.922
8,0.0
9,0.0
49,0.0
53,30.549432945622314
77,30.719986748213035
78,-38.92209291890738
79,-30.571385751270274
2,1, 7,21, 0,19, 0.00,60.00,SummerDesignDay
7,26.927
8,0.0
9,0.0
49,0.0
53,30.073873340656093
77,30.385554990796024
78,-172.47110112580216
79,-150.49974934828873
2,1, 7,21, 0,20, 0.00,60.00,SummerDesignDay
7,25.027
8,0.0
9,0.0
49,0.0
53,29.475559466186674
77,29.699115423331996
78,-167.86459914326366
79,-186.88850563155788
2,1, 7,21, 0,21, 0.00,60.00,SummerDesignDay
7,23.544999999999998
8,0.0
9,0.0
49,0.0
53,29.153228337283156
77,29.301869754855268
78,-87.1674281374084
79,-89.37410000395897
2,1, 7,21, 0,22, 0.00,60.00,SummerDesignDay
7,22.177
8,0.0
9,0.0
49,0.0
53,28.86414144677201
77,29.015249629997975
78,-83.76394993985681
79,-83.29295508237733
2,1, 7,21, 0,23, 0.00,60.00,SummerDesignDay
7,20.999000000000002
8,0.0
9,0.0
49,0.0
53,28.572089088184587
77,28.726823101186113
78,-83.74595445345301
79,-83.94000450492322
2,1, 7,21, 0,24, 0.00,60.00,SummerDesignDay
7,19.935000000000002
8,0.0
9,0.0
49,0.0
53,28.273749627602726
77,28.435270691711015
78,-86.84191849508993
79,-86.30617418794773
3,1, 7,21, 0,SummerDesignDay
54,28.717466056054707,26.088730614210846, 6,15,31.299352615923596,15,45
55,27.551260841890848,15.317887572343801, 5,60,47.52808048001429,13,45
56,1.0477567428701242,0.36086108391294985,17,60,1.3127606693693379,13,60
57,9.783301559853872,9.648633163255639,16,30,10.122743093911502, 7,15
58,28.862689283803665,26.064468993155526, 6,15,30.951954464886395,15,60
59,30.160247969766314,15.483086822352863, 5,60,53.45883196562005, 9,45
60,1.0841497215477578,0.12463613990209824, 6,60,1.5188649667843364, 9,60
61,11.643437088302655,11.426212272735519,12,15,11.980025177711932,19,60
62,28.61972048102605,26.09766313139606, 6,15,30.937008477038148,15,60
63,25.61327501384972,15.483952960310301, 5,60,35.67554836150911,14,60
64,0.87835685542191,0.27126689848693925, 8,30,1.168475679721249, 6,15
65,11.653160956857812,11.475345132408444,19,15,12.102550795709446, 6,45
66,28.847697296807798,26.06432174355412, 6,15,32.36663632253093,16,60
67,30.016858250410404,15.483086822352867, 5,60,61.18468401345157,17,15
68,1.0962075176304205,0.1658766370273271, 9,45,1.5223069350122664,17,15
69,11.649648771504568,11.426228933976615,19,45,12.042965510643082, 7,15
70,28.775031155861864,27.424769537359964, 7,60,30.10606606968422,19,15
71,28.775018403890073,27.424769537359964, 8,15,30.10606606968422,19,30
72,0.9966781203140499,0.2301976731104494, 9,15,1.4308739845191607, 6,15
73,28.873788959525584,26.434989566344104, 6,15,31.19172650330542,15,60
74,32.35412495686318,12.86018682808792, 5,60,61.854759128417484,13,45
75,0.8176616749155214,0.18607696539067564,18,30,1.1597267175089812,20,15
76,13.388848440817393,13.087086540423517,17,45,14.017496897807591,19,45
10,0.0,0, 1,15,0, 1,15
11,9.,9, 1,15,9, 1,15
4,1, 7
50,-30412800.0,-316800.0,21, 1,15,-316800.0,21, 1,15
51,30412800.0,316800.0,21, 1,15,316800.0,21, 1,15
52,0.0,0.0,21, 1,15,0.0,21, 1,15
1,DENVER CENTENNIAL  GOLDEN   N ANN HTG 99% CONDNS DB,  37.62,-122.40,  -8.00,   2.00
2,1,12,21, 0, 1, 0.00,60.00,WinterDesignDay
7,-15.5
8,1.25
9,1.25
49,0.0
53,-18.110853168259283
77,-18.115381713752555
78,-0.02826177064233093
79,-0.028324036415975234
2,1,12,21, 0, 2, 0.00,60.00,WinterDesignDay
7,-15.5
8,3.25
9,3.25
49,0.0
53,-18.11093684020223
77,-18.115463000760847
78,-0.027768748521799225
79,-0.027829927952057854
2,1,12,21, 0, 3, 0.00,60.00,WinterDesignDay
7,-15.5
8,3.375
9,3.375
49,0.0
53,-18.11101905253543
77,-18.1155428697056
78,-0.027284327572214995
79,-0.027344439621734294
2,1,12,21, 0, 4, 0.00,60.00,WinterDesignDay
7,-15.5
8,1.125
9,1.125
49,0.0
53,-18.111099830721777
77,-18.115621345326918
78,-0.026808357722802878
79,-0.026867421016099926
2,1,12,21, 0, 5, 0.00,60.00,WinterDesignDay
7,-15.5
8,1.875
9,1.875
49,0.0
53,-18.111179199779937
77,-18.11569845193325
78,-0.026340691518272674
79,-0.026398724358919115
2,1,12,21, 0, 6, 0.00,60.00,WinterDesignDay
7,-15.5
8,3.0
9,3.0
49,0.0
53,-18.1112571842921
77,-18.115774213408848
78,-0.02588118408706297
79,-0.025938204449758473
2,1,12,21, 0, 7, 0.00,60.00,WinterDesignDay
7,-15.5
8,3.0
9,3.0
49,0.0
53,-18.111333808411594
77,-18.11584865322126
78,-0.025429693072679616
79,-0.025485718636071967
2,1,12,21, 0, 8, 0.00,60.00,WinterDesignDay
7,-15.5
8,3.0
9,3.0
49,0.0
53,-18.111409095870368
77,-18.11592179442853
78,-0.024986078612193374
79,-0.02504112672450111
2,1,12,21, 0, 9, 0.00,60.00,WinterDesignDay
7,-15.5
8,3.0
9,3.0
49,0.0
53,-18.111483069986335
77,-18.115993659686364
78,-0.024550203279986693
79,-0.02460429099304035
2,1,12,21, 0,10, 0.00,60.00,WinterDesignDay
7,-15.5
8,2.375
9,2.375
49,0.0
53,-18.111555753670615
77,-18.11606427125517
78,-0.02412193205060298
79,-0.024175076124949776
2,1,12,21, 0,11, 0.00,60.00,WinterDesignDay
7,-15.5
8,0.75
9,0.75
49,0.0
53,-18.111627169434634
77,-18.116133651006976
78,-0.023701132248762136
79,-0.023753349157656027
2,1,12,21, 0,12, 0.00,60.00,WinterDesignDay
7,-15.5
8,0.0
9,0.0
49,0.0
53,-18.111697339397068
77,-18.116201820432156
78,-0.023287673517687235
79,-0.023338979440639486
2,1,12,21, 0,13, 0.00,60.00,WinterDesignDay
7,-15.5
8,0.0
9,0.0
49,0.0
53,-18.111766285290702
77,-18.116268800646075
78,-0.022881427781241026
79,-0.022931838598000548
2,1,12,21, 0,14, 0.00,60.00,WinterDesignDay
7,-15.5
8,0.0
9,0.0
49,0.0
53,-18.111834028469204
77,-18.116334612395736
78,-0.02248226919030527
79,-0.0225318005345822
2,1,12,21, 0,15, 0.00,60.00,WinterDesignDay
7,-15.5
8,0.0
9,0.0
49,0.0
53,-18.111900589913706
77,-18.11639927606612
78,-0.022090074095848067
79,-0.022138741309396522
2,1,12,21, 0,16, 0.00,60.00,WinterDesignDay
7,-15.5
8,0.0
9,0.0
49,0.0
53,-18.111965990239298
77,-18.116462811686517
78,-0.021704721007197225
79,-0.021752539165420443
2,1,12,21, 0,17, 0.00,60.00,WinterDesignDay
7,-15.5
8,0.0
9,0.0
49,0.0
53,-18.112030249701423
77,-18.116525238936767
78,-0.021326090549883325
79,-0.0213730744669743
2,1,12,21, 0,18, 0.00,60.00,WinterDesignDay
7,-15.5
8,0.0
9,0.0
49,0.0
53,-18.112093388202176
77,-18.116586577153335
78,-0.02095406543744005
79,-0.021000229673163257
2,1,12,21, 0,19, 0.00,60.00,WinterDesignDay
7,-15.5
8,0.0
9,0.0
49,0.0
53,-18.112155425296418
77,-18.1166468453353
78,-0.020588530424456852
79,-0.020633889274651013
2,1,12,21, 0,20, 0.00,60.00,WinterDesignDay
7,-15.5
8,0.0
9,0.0
49,0.0
53,-18.112216380197886
77,-18.116706062150243
78,-0.02022937228322297
79,-0.020273939811958575
2,1,12,21, 0,21, 0.00,60.00,WinterDesignDay
7,-15.5
8,0.0
9,0.0
49,0.0
53,-18.11227627178512
77,-18.116764245940075
78,-0.019876479751660625
79,-0.019920269757137662
2,1,12,21, 0,22, 0.00,60.00,WinterDesignDay
7,-15.5
8,0.0
9,0.0
49,0.0
53,-18.11233511860731
77,-18.11682141472663
78,-0.019529743530013022
79,-0.019572769574859896
2,1,12,21, 0,23, 0.00,60.00,WinterDesignDay
7,-15.5
8,0.0
9,0.0
49,0.0
53,-18.112392938890025
77,-18.116877586217345
78,-0.019189056196425636
79,-0.01923133161412133
2,1,12,21, 0,24, 0.00,60.00,WinterDesignDay
7,-15.5
8,0.0
9,0.0
49,0.0
53,-18.112449750540918
77,-18.116932777810696
78,-0.018854312223772318
79,-0.018895850112739237
3,1,12,21, 0,WinterDesignDay
54,-18.057236656178517,-18.057944391659294,24,60,-18.056424460513007, 1,15
55,-17.460043136817603,-17.460070725315656,24,60,-17.46001147644952, 1,15
56,0.5097767062028198,0.5096492159900667, 1,15,0.5098877555324792,24,60
57,7.151558625214189,7.151557725193394,24,60,7.151559658093315, 1,15
58,-18.053783707056535,-18.05448773860824,24,60,-18.05297576216529, 1,15
59,-17.459905270346443,-17.459932721120587,24,60,-17.45987376803941, 1,15
60,0.5195382898217359,0.5194036975020566, 1,15,0.5196555245998588,24,60
61,7.151563103361565,7.151562207702414,24,60,7.15156413123476, 1,15
62,-18.053161227379785,-18.053869008274546,24,60,-18.052348979536806, 1,15
63,-17.41390049090415,-17.413927457934378,24,60,-17.413869543717986, 1,15
64,0.5212597695063664,0.5211379803755334, 1,15,0.5213658552407608,24,60
65,7.416559078409499,7.416558023598313,24,60,7.416560288926089, 1,15
66,-18.0494807622862,-18.050184857373843,24,60,-18.048672744408666, 1,15
67,-17.41375690543344,-17.413783738505593,24,60,-17.41372611198572, 1,15
68,0.5312117492410882,0.5310832034237152, 1,15,0.5313237198094736,24,60
69,7.416564670388786,7.41656362067293,24,60,7.416565875057439, 1,15
70,-18.1168116796651,-18.117685634409135,24,60,-18.115808732755497, 1,15
71,-18.11679187625587,-18.11766968445697,24,60,-18.115784507123184, 1,15
72,0.10000000000000003,0.1, 1,15,0.1, 1,15
73,-18.18884241079595,-18.189592121672003,24,60,-18.187982043619535, 1,15
74,-20.304342997668726,-20.304354161091933,24,60,-20.304330186548263, 1,15
75,0.6342155852174677,0.6342035107671143, 1,15,0.6342261144630148,24,60
76,8.618918701282555,8.618918408015997,24,60,8.618919037835227, 1,15
10,0.0,0, 1,15,0, 1,15
11,10.,10, 1,15,10, 1,15
4,1,12
50,-30412800.0,-316800.0,21, 1,15,-316800.0,21, 1,15
51,30412800.0,316800.0,21, 1,15,316800.0,21, 1,15
52,0.0,0.0,21, 1,15,0.0,21, 1,15
1,RUN PERIOD 1,  37.62,-122.40,  -8.00,   2.00
2,1, 1, 1, 0, 1, 0.00,60.00,Tuesday
7,7.0125
8,1.25
9,1.25
49,0.0
53,12.487512459236896
77,12.640806878375345
78,-78.72313734309516
79,-76.33652730427741
2,1, 1, 1, 0, 2, 0.00,60.00,Tuesday
7,7.2
8,3.25
9,3.25
49,0.0
53,12.357003489134623
77,12.450937525883148
78,-27.970742935632224
79,-37.4523330849983
2,1, 1, 1, 0, 3, 0.00,60.00,Tuesday
7,6.8875
8,3.375
9,3.375
49,0.0
53,12.22472985696521
77,12.345742576797889
78,-50.952609692690444
79,-44.27873686914935
2,1, 1, 1, 0, 4, 0.00,60.00,Tuesday
7,6.324999999999999
8,1.125
9,1.125
49,0.0
53,11.969161888527134
77,12.126888379091142
78,-84.56450722110637
79,-80.58523085190666
2,1, 1, 1, 0, 5, 0.00,60.00,Tuesday
7,5.0375
8,1.875
9,1.875
49,0.0
53,11.715816667161741
77,11.862630885958275
78,-73.78025388955679
79,-76.84516497916631
2,1, 1, 1, 0, 6, 0.00,60.00,Tuesday
7,4.4
8,3.0
9,3.0
49,0.0
53,11.483531845147523
77,11.631012775721835
78,-71.7762647008679
79,-71.75030818689673
2,1, 1, 1, 0, 7, 0.00,60.00,Tuesday
7,5.4624999999999995
8,3.0
9,3.0
49,0.0
53,11.276521597960272
77,11.41473107576039
78,-62.686657382020485
79,-64.0666228901635
2,1, 1, 1, 0, 8, 0.00,60.00,Tuesday
7,5.4125
8,3.0
9,3.0
49,0.0
53,11.42932313206652
77,11.341623357183355
78,89.73657214952203
79,47.144615879909814
2,1, 1, 1, 0, 9, 0.00,60.00,Tuesday
7,6.750000000000001
8,3.0
9,3.0
49,0.0
53,12.653734170685368
77,12.04937377544711
78,501.14774382385747
79,430.789271307938
2,1, 1, 1, 0,10, 0.00,60.00,Tuesday
7,8.487499999999999
8,2.375
9,2.375
49,0.0
53,13.74897011399987
77,13.410418534415584
78,433.78745127636626
79,457.5319031265186
2,1, 1, 1, 0,11, 0.00,60.00,Tuesday
7,9.2125
8,0.75
9,0.75
49,0.0
53,14.377366642003821
77,14.3891181251945
78,172.43643750140825
79,205.1429655314672
2,1, 1, 1, 0,12, 0.00,60.00,Tuesday
7,9.775
8,0.0
9,0.0
49,0.0
53,14.629941028154338
77,14.711712810158321
78,71.38369451615664
79,69.66574266479674
2,1, 1, 1, 0,13, 0.00,60.00,Tuesday
7,10.375
8,0.0
9,0.0
49,0.0
53,14.937104643303178
77,14.970532732480457
78,98.02862967970842
79,92.05727160163335
2,1, 1, 1, 0,14, 0.00,60.00,Tuesday
7,10.9125
8,0.0
9,0.0
49,0.0
53,15.514084048979432
77,15.44273111931357
78,193.55378028951213
79,181.77334195553738
2,1, 1, 1, 0,15, 0.00,60.00,Tuesday
7,12.85
8,0.0
9,0.0
49,0.0
53,16.02467579835595
77,16.070315648420646
78,145.53483915488965
79,166.47657747180892
2,1, 1, 1, 0,16, 0.00,60.00,Tuesday
7,13.9
8,0.0
9,0.0
49,0.0
53,15.59711690714718
77,16.034741737475386
78,-201.01794730183724
79,-148.83397891201747
2,1, 1, 1, 0,17, 0.00,60.00,Tuesday
7,12.15
8,0.0
9,0.0
49,0.0
53,14.499324592129994
77,15.120353294124952
78,-437.97106903791826
79,-391.06521733125
2,1, 1, 1, 0,18, 0.00,60.00,Tuesday
7,11.1
8,0.0
9,0.0
49,0.0
53,14.024972855866821
77,14.249034047128402
78,-170.16040496152118
79,-205.93856208302194
2,1, 1, 1, 0,19, 0.00,60.00,Tuesday
7,10.7875
8,0.0
9,0.0
49,0.0
53,13.753326556743769
77,13.887477191104377
78,-76.42950245686986
79,-80.38746694316923
2,1, 1, 1, 0,20, 0.00,60.00,Tuesday
7,10.6
8,0.0
9,0.0
49,0.0
53,13.607210416304133
77,13.702524967527134
78,-39.88624965377481
79,-44.20335788695692
2,1, 1, 1, 0,21, 0.00,60.00,Tuesday
7,9.5375
8,0.0
9,0.0
49,0.0
53,13.40565182389797
77,13.542096364703799
78,-70.37868342476334
79,-63.39783079508742
2,1, 1, 1, 0,22, 0.00,60.00,Tuesday
7,9.2125
8,0.0
9,0.0
49,0.0
53,13.21930873818298
77,13.328852363498246
78,-49.412867561196705
79,-55.735518881610695
2,1, 1, 1, 0,23, 0.00,60.00,Tuesday
7,8.4
8,0.0
9,0.0
49,0.0
53,12.986877170714475
77,13.139100065069176
78,-81.12457000531224
79,-73.27901027517122
2,1, 1, 1, 0,24, 0.00,60.00,Tuesday
7,7.1125
8,0.0
9,0.0
49,0.0
53,12.73216958142148
77,12.874524830357839
78,-72.94614167502185
79,-76.98064267157008
3,1, 1, 1, 0,Tuesday
54,13.747856003967186,10.698070363537072, 8,15,18.210966515594578,15,30
55,20.360694757214045,2.9058294121463017, 6,60,56.39956670754376,15,30
56,1.2282224905555514,0.6580311521364555,17,15,1.7319946313640548,11,15
57,5.003218499410731,1.6425750728704624, 8,45,7.708211287900361, 5,60
58,13.352715746268677,10.671821283641917, 8,15,16.15772528061342,15,45
59,13.34222020982679,2.9042373726401767, 6,60,44.95235627846666,10,30
60,1.0516459608430748,0.11206343228763016,15,60,1.69542157915171,10,15
61,4.725743778234713,1.6971539789334322, 8,15,7.509226744344893,17,30
62,13.104220199274629,10.697787174106086, 8,15,16.148017248408024,15,45
63,9.062448817445294,2.956115974204195, 6,60,18.69627071233703,15,45
64,0.8965638840623181,0.22169657979173976,11,45,1.2071988613966582,17,45
65,4.415402205509501,0.830995121602526, 9,30,7.874414295878999,17,30
66,13.265607965597859,10.672108725795825, 8,15,17.845538327394742,15,60
67,11.915874585931972,2.904624309326368, 6,60,46.22987852171505,15,60
68,1.0065761624791858,0.25477664057873045,11,30,1.571252384975357,15,45
69,4.581270467731515,0.8347904681203239, 9,30,7.821770668083341,16,60
70,13.357390001470526,11.962329047263193, 8,60,14.630732192423565,16,60
71,13.357404930722764,11.962329047263193, 9,15,14.630732192423565,17,15
72,1.0967820289568164,0.35433540415943804, 9,60,1.37085295745129, 7,30
73,13.320564819235834,10.874867096275183, 8,15,16.382295981778917,15,30
74,10.703255293934369,-2.937739162834906, 8,30,34.874745071474955,14,45
75,0.8981813775167035,0.208401281421919, 9,15,1.3554099698588982,17,45
76,5.21504026481622,1.157559970010964, 9,15,8.987806145537725,17,30
10,0.0,0, 1,15,0, 1,15
11,3.,3, 1,15,3, 1,15
2,2, 1, 2, 0, 1, 0.00,60.00,Wednesday
7,8.075000000000001
8,0.0
9,0.0
49,0.0
53,12.628155622240493
77,12.71208366342401
78,-22.38421256323352
79,-30.309943910919834
2,2, 1, 2, 0, 2, 0.00,60.00,Wednesday
7,7.15
8,1.25
9,0.625
49,0.0
53,12.326623974954831
77,12.528725905565638
78,-121.18856693237029
79,-100.25699393341273
2,2, 1, 2, 0, 3, 0.00,60.00,Wednesday
7,5.7875
8,1.375
9,1.0
49,0.0
53,11.950885017100621
77,12.126592667562644
78,-99.73221106737509
79,-111.08068326686592
2,2, 1, 2, 0, 4, 0.00,60.00,Wednesday
7,4.5375
8,2.25
9,2.25
49,0.0
53,11.632860516721614
77,11.819457661784732
78,-100.95059252471108
79,-97.82124964386601
2,2, 1, 2, 0, 5, 0.00,60.00,Wednesday
7,4.9624999999999995
8,1.125
9,1.125
49,0.0
53,11.4597513991763
77,11.575951664448075
78,-36.54092874872602
79,-48.81736827215689
2,2, 1, 2, 0, 6, 0.00,60.00,Wednesday
7,6.6
8,0.0
9,0.0
49,0.0
53,11.469066440094567
77,11.534812917496858
78,1.874323748657499
79,-0.17903053650022271
2,2, 1, 2, 0, 7, 0.00,60.00,Wednesday
7,7.575
8,0.0
9,0.0
49,0.0
53,11.463401329777962
77,11.531213699909753
78,-9.74699887512868
79,-6.768533519928015
2,2, 1, 2, 0, 8, 0.00,60.00,Wednesday
7,7.425
8,0.0
9,0.0
49,0.0
53,11.53431638644339
77,11.518310825835222
78,27.21521479524252
79,14.440407364686411
2,2, 1, 2, 0, 9, 0.00,60.00,Wednesday
7,9.325000000000001
8,0.0
9,0.0
49,0.0
53,12.166649146019928
77,11.874384870819236
78,192.47822486366945
79,172.93076663721507
2,2, 1, 2, 0,10, 0.00,60.00,Wednesday
7,11.287499999999998
8,0.0
9,0.0
49,0.0
53,12.8769750707214
77,12.62908777372196
78,245.3561376441882
79,249.26535900637958
2,2, 1, 2, 0,11, 0.00,60.00,Wednesday
7,13.075
8,0.625
9,0.0
49,0.0
53,13.573127146435283
77,13.370652880152054
78,241.72309839884207
79,231.25025241345338
2,2, 1, 2, 0,12, 0.00,60.00,Wednesday
7,13.9
8,1.625
9,0.625
49,0.0
53,14.218969096038368
77,14.141717021552473
78,190.50224968243208
79,212.11380710508934
2,2, 1, 2, 0,13, 0.00,60.00,Wednesday
7,13.9
8,2.0
9,1.0
49,0.0
53,14.96829211040692
77,14.813980783452097
78,264.1497873616496
79,243.40586719908995
2,2, 1, 2, 0,14, 0.00,60.00,Wednesday
7,13.9
8,2.0
9,1.0
49,0.0
53,15.256475670957233
77,15.36711736887234
78,41.18693701798746
79,76.17819078674583
2,2, 1, 2, 0,15, 0.00,60.00,Wednesday
7,12.837499999999999
8,2.0
9,1.0
49,0.0
53,15.263721794223363
77,15.433401454009484
78,9.774422206558448
79,12.907328233390084
2,2, 1, 2, 0,16, 0.00,60.00,Wednesday
7,12.575
8,1.375
9,1.0
49,0.0
53,14.947217295259389
77,15.279890737346271
78,-137.8370690751509
79,-107.9084929067443
2,2, 1, 2, 0,17, 0.00,60.00,Wednesday
7,11.7375
8,1.0
9,0.375
49,0.0
53,14.012888633678621
77,14.457938044862448
78,-299.092523088991
79,-305.36250999697677
2,2, 1, 2, 0,18, 0.00,60.00,Wednesday
7,10.7875
8,2.25
9,1.25
49,0.0
53,13.537210637504597
77,13.74481258066206
78,-149.90098074995745
79,-160.7965378394656
2,2, 1, 2, 0,19, 0.00,60.00,Wednesday
7,11.287499999999998
8,1.125
9,0.75
49,0.0
53,13.265770178816483
77,13.388867802311095
78,-68.98890515994242
79,-80.13547229378923
2,2, 1, 2, 0,20, 0.00,60.00,Wednesday
7,11.7
8,0.0
9,0.0
49,0.0
53,13.187429009095407
77,13.254523524734624
78,-18.076877340348553
79,-23.203083335864523
2,2, 1, 2, 0,21, 0.00,60.00,Wednesday
7,10.6375
8,0.0
9,0.0
49,0.0
53,13.046662657572918
77,13.162296998786184
78,-54.244587550329925
79,-45.298850677200335
2,2, 1, 2, 0,22, 0.00,60.00,Wednesday
7,9.3125
8,0.0
9,0.0
49,0.0
53,12.74077016530372
77,12.908346431011765
78,-99.51408769324637
79,-95.07086421578394
2,2, 1, 2, 0,23, 0.00,60.00,Wednesday
7,9.2125
8,0.0
9,0.0
49,0.0
53,12.503602201443446
77,12.629492751492698
78,-60.85234348538568
79,-69.04380227685338
2,2, 1, 2, 0,24, 0.00,60.00,Wednesday
7,9.0875
8,0.0
9,0.0
49,0.0
53,12.312618145781547
77,12.444780250245593
78,-62.04415368496379
79,-59.37219092607157
3,2, 1, 2, 0,Wednesday
54,13.288460464567406,10.964616233728256, 4,60,17.523322665764574,13,60
55,17.89004941730071,1.4846444666315979, 4,60,58.68844636126106,13,45
56,1.1627139050094613,0.2814206907284086, 8,60,1.7792428252584427,13,45
57,6.016700778086933,1.6098561504538287, 2,60,14.152302836678475, 9,60
58,12.931172087321933,10.9326656916721, 4,60,15.575351586567152,14,15
59,11.671083321932846,1.4827421814072674, 4,60,29.820240126428835,10,30
60,1.0321756824184107,0.3140014727997692,15,30,1.4058786837634105,10,45
61,5.764454659744213,1.6685114738035323, 2,60,14.133075608032259, 9,60
62,12.80351974552507,10.954912231667478, 5,30,15.555046944465003,14,15
63,9.454869026781633,1.4846444706382036, 4,60,21.265037793212304,13,60
64,0.9340638886328642,0.17174275987189702,15,30,1.180686882510112, 5,15
65,5.424392468862556,1.668172513277793, 2,60,11.747843870590309, 9,60
66,12.940132605104965,10.92479401754147, 5,30,16.60241423577653,15,30
67,11.797361844279322,1.4827421772783376, 4,60,36.82983557326853,15,60
68,1.0177655797427245,0.4261355943257233, 9,45,1.379257782361399,15,45
69,5.57378085179137,1.61019038673681, 2,60,11.748572194797976, 9,60
70,13.084414144215097,11.94196175010027, 8,60,14.178896657189146,16,60
71,13.089053832241738,11.94196175010027, 9,15,14.178896657189146,17,15
72,1.0820644344517008,0.35870458042375314,10,15,1.4602039173353318, 5,30
73,12.946236123185521,11.192052795252255, 5,30,15.727792475247046,13,60
74,9.137934777323531,-4.776947092856844, 4,60,39.32803375262873,13,45
75,0.8903133869897638,0.18450051395225114,15,60,1.2702674989126337,17,45
76,6.615730307271858,1.4574686728554014,18,60,16.7687754616942, 9,45
10,0.0,0, 1,15,0, 1,15
11,4.,4, 1,15,4, 1,15
2,3, 1, 3, 0, 1, 0.00,60.00,Thursday
7,9.2125
8,0.0
9,0.0
49,0.0
53,12.267088712725487
77,12.322843971870212
78,-2.3905808780438456
79,-12.911808601789934
2,3, 1, 3, 0, 2, 0.00,60.00,Thursday
7,9.775
8,0.0
9,0.0
49,0.0
53,12.312024800043726
77,12.3472710608572
78,7.264077467148193
79,8.905781613789973
2,3, 1, 3, 0, 3, 0.00,60.00,Thursday
7,11.375
8,0.0
9,0.0
49,0.0
53,12.311784936652403
77,12.355747024515326
78,-5.577432029204923
79,-2.6458729858779027
2,3, 1, 3, 0, 4, 0.00,60.00,Thursday
7,13.2625
8,0.0
9,0.0
49,0.0
53,12.490708023152184
77,12.406211077495822
78,46.08127799447318
79,36.594629097743734
2,3, 1, 3, 0, 5, 0.00,60.00,Thursday
7,13.212500000000002
8,0.0
9,0.0
49,0.0
53,12.548476534966435
77,12.525051317532888
78,15.239415275847831
79,22.868106402839697
2,3, 1, 3, 0, 6, 0.00,60.00,Thursday
7,12.425
8,0.0
9,0.0
49,0.0
53,12.471873961805164
77,12.515071389178173
78,-16.71750564939149
79,-14.36929505735645
2,3, 1, 3, 0, 7, 0.00,60.00,Thursday
7,11.5125
8,0.0
9,0.0
49,0.0
53,12.35785169797231
77,12.431387683295842
78,-34.99986787055716
79,-32.71608274734916
2,3, 1, 3, 0, 8, 0.00,60.00,Thursday
7,11.1
8,0.0
9,0.0
49,0.0
53,12.383666726899277
77,12.35667393894285
78,13.333804181626771
79,-0.8992381081894845
2,3, 1, 3, 0, 9, 0.00,60.00,Thursday
7,11.474999999999998
8,0.0
9,0.0
49,0.0
53,12.90842626906971
77,12.650076101938922
78,178.19967916162057
79,155.2070614454101
2,3, 1, 3, 0,10, 0.00,60.00,Thursday
7,12.7
8,0.0
9,0.0
49,0.0
53,13.728528422408832
77,13.446674169795497
78,292.76385184849397
79,285.7496308956955
2,3, 1, 3, 0,11, 0.00,60.00,Thursday
7,12.6125
8,0.0
9,0.0
49,0.0
53,14.230561611901907
77,14.206430158638083
78,134.46104047164621
79,167.38394374115796
2,3, 1, 3, 0,12, 0.00,60.00,Thursday
7,13.95
8,0.625
9,0.625
49,0.0
53,14.66756858430405
77,14.563110684371438
78,156.92019335486341
79,130.8092350250871
2,3, 1, 3, 0,13, 0.00,60.00,Thursday
7,15.375000000000002
8,2.25
9,1.625
49,0.0
53,15.328544039700553
77,15.219497661186193
78,207.703742740373
79,215.28674616617275
2,3, 1, 3, 0,14, 0.00,60.00,Thursday
7,15.912500000000001
8,2.375
9,1.375
49,0.0
53,15.972822695770303
77,15.896487082504978
78,197.00827230532863
79,201.955420264797
2,3, 1, 3, 0,15, 0.00,60.00,Thursday
7,16.1
8,1.375
9,1.0
49,0.0
53,16.011781709753205
77,16.205800202902978
78,-20.932916426877416
79,8.165914516033375
2,3, 1, 3, 0,16, 0.00,60.00,Thursday
7,14.725
8,1.625
9,1.0
49,0.0
53,15.512834716949246
77,15.887826649959027
78,-183.15113116389972
79,-157.68105968134014
2,3, 1, 3, 0,17, 0.00,60.00,Thursday
7,13.9
8,2.0
9,1.625
49,0.0
53,14.57051960398805
77,15.00943382392391
78,-298.9337791862323
79,-307.35509728501006
2,3, 1, 3, 0,18, 0.00,60.00,Thursday
7,13.212500000000002
8,1.375
9,1.375
49,0.0
53,14.240623730973885
77,14.37081682627367
78,-88.52220272474194
79,-112.41229303072384
2,3, 1, 3, 0,19, 0.00,60.00,Thursday
7,12.425
8,1.0
9,1.0
49,0.0
53,14.073020209708979