Program Version,EnergyPlus, Version 9.6.0-f420c06a69, YMD=2022.08.26 06:39
1,5,Environment Title[],Latitude[deg],Longitude[deg],Time Zone[],Elevation[m]
2,8,Day of Simulation[],Month[],Day of Month[],DST Indicator[1=yes 0=no],Hour[],StartMinute[],EndMinute[],DayType
3,5,Cumulative Day of Simulation[],Month[],Day of Month[],DST Indicator[1=yes 0=no],DayType  ! When Daily Report Variables Requested
4,2,Cumulative Days of Simulation[],Month[]  ! When Monthly Report Variables Requested
5,1,Cumulative Days of Simulation[] ! When Run Period Report Variables Requested
6,1,Calendar Year of Simulation[] ! When Annual Report Variables Requested
7,1,Environment,Site Outdoor Air Drybulb Temperature [C] !Hourly
8,1,Environment,Site Total Sky Cover [] !Hourly
9,1,Environment,Site Opaque Sky Cover [] !Hourly
10,7,Environment,Site Daylight Saving Time Status [] !Daily [Value,Min,Hour,Minute,Max,Hour,Minute]
11,7,Environment,Site Day Type Index [] !Daily [Value,Min,Hour,Minute,Max,Hour,Minute]
49,1,ZONE ONE,Zone Total Internal Latent Gain Energy [J] !Hourly
50,9,TEST 352 MINUS,Other Equipment Total Heating Energy [J] !Monthly [Value,Min,Day,Hour,Minute,Max,Day,Hour,Minute]
51,9,TEST 352A,Other Equipment Total Heating Energy [J] !Monthly [Value,Min,Day,Hour,Minute,Max,Day,Hour,Minute]
52,9,ZONE ONE,Zone Other Equipment Total Heating Energy [J] !Monthly [Value,Min,Day,Hour,Minute,Max,Day,Hour,Minute]
53,1,ZONE ONE,Zone Mean Radiant Temperature [C] !Hourly
54,7,ZN001:WALL001,Surface Inside Face Temperature [C] !Daily [Value,Min,Hour,Minute,Max,Hour,Minute]
55,7,ZN001:WALL001,Surface Outside Face Temperature [C] !Daily [Value,Min,Hour,Minute,Max,Hour,Minute]
56,7,ZN001:WALL001,Surface Inside Face Convection Heat Transfer Coefficient [W/m2-K] !Daily [Value,Min,Hour,Minute,Max,Hour,Minute]
57,7,ZN001:WALL001,Surface Outside Face Convection Heat Transfer Coefficient [W/m2-K] !Daily [Value,Min,Hour,Minute,Max,Hour,Minute]
58,7,ZN001:WALL002,Surface Inside Face Temperature [C] !Daily [Value,Min,Hour,Minute,Max,Hour,Minute]
59,7,ZN001:WALL002,Surface Outside Face Temperature [C] !Daily [Value,Min,Hour,Minute,Max,Hour,Minute]
60,7,ZN001:WALL002,Surface Inside Face Convection Heat Transfer Coefficient [W/m2-K] !Daily [Value,Min,Hour,Minute,Max,Hour,Minute]
61,7,ZN001:WALL002,Surface Outside Face Convection Heat Transfer Coefficient [W/m2-K] !Daily [Value,Min,Hour,Minute,Max,Hour,Minute]
62,7,ZN001:WALL003,Surface Inside Face Temperature [C] !Daily [Value,Min,Hour,Minute,Max,Hour,Minute]
63,7,ZN001:WALL003,Surface Outside Face Temperature [C] !Daily [Value,Min,Hour,Minute,Max,Hour,Minute]
64,7,ZN001:WALL003,Surface Inside Face Convection Heat Transfer Coefficient [W/m2-K] !Daily [Value,Min,Hour,Minute,Max,Hour,Minute]
65,7,ZN001:WALL003,Surface Outside Face Convection Heat Transfer Coefficient [W/m2-K] !Daily [Value,Min,Hour,Minute,Max,Hour,Minute]
66,7,ZN001:WALL004,Surface Inside Face Temperature [C] !Daily [Value,Min,Hour,Minute,Max,Hour,Minute]
67,7,ZN001:WALL004,Surface Outside Face Temperature [C] !Daily [Value,Min,Hour,Minute,Max,Hour,Minute]
68,7,ZN001:WALL004,Surface Inside Face Convection Heat Transfer Coefficient [W/m2-K] !Daily [Value,Min,Hour,Minute,Max,Hour,Minute]
69,7,ZN001:WALL004,Surface Outside Face Convection Heat Transfer Coefficient [W/m2-K] !Daily [Value,Min,Hour,Minute,Max,Hour,Minute]
70,7,ZN001:FLR001,Surface Inside Face Temperature [C] !Daily [Value,Min,Hour,Minute,Max,Hour,Minute]
71,7,ZN001:FLR001,Surface Outside Face Temperature [C] !Daily [Value,Min,Hour,Minute,Max,Hour,Minute]
72,7,ZN001:FLR001,Surface Inside Face Convection Heat Transfer Coefficient [W/m2-K] !Daily [Value,Min,Hour,Minute,Max,Hour,Minute]
73,7,ZN001:ROOF001,Surface Inside Face Temperature [C] !Daily [Value,Min,Hour,Minute,Max,Hour,Minute]
74,7,ZN001:ROOF001,Surface Outside Face Temperature [C] !Daily [Value,Min,Hour,Minute,Max,Hour,Minute]
75,7,ZN001:ROOF001,Surface Inside Face Convection Heat Transfer Coefficient [W/m2-K] !Daily [Value,Min,Hour,Minute,Max,Hour,Minute]
76,7,ZN001:ROOF001,Surface Outside Face Convection Heat Transfer Coefficient [W/m2-K] !Daily [Value,Min,Hour,Minute,Max,Hour,Minute]
77,1,ZONE ONE,Zone Mean Air Temperature [C] !Hourly
78,1,ZONE ONE,Zone Air Heat Balance Surface Convection Rate [W] !Hourly
79,1,ZONE ONE,Zone Air Heat Balance Air Energy Storage Rate [W] !Hourly
End of Data Dictionary
1,DENVER CENTENNIAL  GOLDEN   N ANN CLG 1% CONDNS DB=>MWB,  37.62,-122.40,  -8.00,   2.00
2,1, 7,21, 0, 1, 0.00,60.00,SummerDesignDay
7,18.966
8,1.25
9,1.25
49,0.0
53,28.403682965064938
77,28.561110649179952
78,-95.36970339431724
79,-95.28451082035025
2,1, 7,21, 0, 2, 0.00,60.00,SummerDesignDay
7,18.244
8,3.25
9,3.25
49,0.0
53,28.12035130847199
77,28.277387057404063
78,-93.09698855018694
79,-93.60784367295881
2,1, 7,21, 0, 3, 0.00,60.00,SummerDesignDay
7,17.731
8,3.375
9,3.375
49,0.0
53,27.845351028394287
77,28.001745155161043
78,-90.96087492163532
79,-91.21903760960899
2,1, 7,21, 0, 4, 0.00,60.00,SummerDesignDay
7,17.275000000000002
8,1.125
9,1.125
49,0.0
53,27.571706888637486
77,27.729366205318634
78,-91.2974385805592
79,-91.18763973434264
2,1, 7,21, 0, 5, 0.00,60.00,SummerDesignDay
7,16.913999999999998
8,1.875
9,1.875
49,0.0
53,27.301424545185014
77,27.457990360612836
78,-89.64965380694011
79,-90.02036073554929
2,1, 7,21, 0, 6, 0.00,60.00,SummerDesignDay
7,16.990000000000002
8,3.0
9,3.0
49,0.0
53,27.231868867372285
77,27.272845312893825
78,3.65253291905098
79,-20.099481638742507
2,1, 7,21, 0, 7, 0.00,60.00,SummerDesignDay
7,17.769
8,3.0
9,3.0
49,0.0
53,27.625746372244304
77,27.507744268830862
78,114.80423742870731
79,113.87878664800455
2,1, 7,21, 0, 8, 0.00,60.00,SummerDesignDay
7,19.783
8,3.0
9,3.0
49,0.0
53,28.00434387030805
77,27.854123935543456
78,121.02986191986841
79,118.0470252455224
2,1, 7,21, 0, 9, 0.00,60.00,SummerDesignDay
7,22.557
8,3.0
9,3.0
49,0.0
53,28.4544641297103
77,28.26949343074392
78,159.88015309610745
79,154.1038353607013
2,1, 7,21, 0,10, 0.00,60.00,SummerDesignDay
7,25.255000000000003
8,2.375
9,2.375
49,0.0
53,28.982629523826983
77,28.783249176613854
78,174.761861602775
79,175.23427445206826
2,1, 7,21, 0,11, 0.00,60.00,SummerDesignDay
7,27.649
8,0.75
9,0.75
49,0.0
53,29.461751390284405
77,29.287773697451485
78,158.11427307362322
79,160.95170881131722
2,1, 7,21, 0,12, 0.00,60.00,SummerDesignDay
7,29.454
8,0.0
9,0.0
49,0.0
53,29.84723338346643
77,29.71414630043437
78,122.92606905244244
79,127.92838902784247
2,1, 7,21, 0,13, 0.00,60.00,SummerDesignDay
7,30.784
8,0.0
9,0.0
49,0.0
53,30.201190027367716
77,30.06363218574052
78,123.79201256012108
79,119.0888296385859
2,1, 7,21, 0,14, 0.00,60.00,SummerDesignDay
7,31.715
8,0.0
9,0.0
49,0.0
53,30.60256454399201
77,30.471441264810004
78,135.13408860325586
79,137.3615831134378
2,1, 7,21, 0,15, 0.00,60.00,SummerDesignDay
7,32.0
8,0.0
9,0.0
49,0.0
53,30.896041170519894
77,30.828713376315534
78,96.54586460224007
79,102.6794269541371
2,1, 7,21, 0,16, 0.00,60.00,SummerDesignDay
7,31.43
8,0.0
9,0.0
49,0.0
53,31.013653577656555
77,31.037441221857588
78,39.011292171909126
79,46.908842908340574
2,1, 7,21, 0,17, 0.00,60.00,SummerDesignDay
7,30.328
8,0.0
9,0.0
49,0.0
53,30.979871709716253
77,31.085124049459573
78,0.9619892975691233
79,3.131800174124638
2,1, 7,21, 0,18, 0.00,60.00,SummerDesignDay
7,28.922
8,0.0
9,0.0
49,0.0
53,30.85324993770682
77,31.038581096410077
78,-44.977986353152374
79,-34.70535237264731
2,1, 7,21, 0,19, 0.00,60.00,SummerDesignDay
7,26.927
8,0.0
9,0.0
49,0.0
53,30.39095325517124
77,30.706996476828614
78,-190.74566622415432
79,-167.69374644204782
2,1, 7,21, 0,20, 0.00,60.00,SummerDesignDay
7,25.027
8,0.0
9,0.0
49,0.0
53,29.823010815047123
77,30.046510498518344
78,-184.9453788533771
79,-205.27004610324607
2,1, 7,21, 0,21, 0.00,60.00,SummerDesignDay
7,23.544999999999998
8,0.0
9,0.0
49,0.0
53,29.520610640954636
77,29.664150475430105
78,-94.70935784578887
79,-97.44023491797739
2,1, 7,21, 0,22, 0.00,60.00,SummerDesignDay
7,22.177
8,0.0
9,0.0
49,0.0
53,29.248730997253297
77,29.393038367864236
78,-90.10638337536491
79,-89.64021891252168
2,1, 7,21, 0,23, 0.00,60.00,SummerDesignDay
7,20.999000000000002
8,0.0
9,0.0
49,0.0
53,28.97408275337773
77,29.121307167109634
78,-90.09911714942078
79,-90.28546520714539
2,1, 7,21, 0,24, 0.00,60.00,SummerDesignDay
7,19.935000000000002
8,0.0
9,0.0
49,0.0
53,28.693239392372078
77,28.84654911798018
78,-93.3760922102456
79,-92.80670675980683
3,1, 7,21, 0,SummerDesignDay
54,29.082229385761593,26.56129861418209, 6,15,31.538053100265824,15,45
55,27.56146215405204,15.331541055518803, 5,60,47.53448648913061,13,45
56,1.0572161203742891,0.18826627479190616,17,45,1.3165254835369624,13,60
57,9.783774026310008,9.648629241275579,16,30,10.132458165358283, 7,15
58,29.227830175152437,26.555230275493095, 6,15,31.180538838727646,16,30
59,30.168919007758785,15.495682100770182, 5,60,53.469092730390464, 9,45
60,1.08374819576648,0.2920229345336439,17,45,1.4994732113088025, 9,45
61,11.643977888700098,11.42621066495903,12,15,11.983544714117663,19,60
62,28.981511387206357,26.57031444843501, 6,15,31.17535522193219,16,30
63,25.62249649013677,15.496076177633727, 5,60,35.68098717591829,14,60
64,0.8815197015818802,0.3455303356784112, 9,60,1.1823691470091735, 6,15
65,11.653436001178934,11.475237102641024,19,15,12.090528201763169, 6,45
66,29.212977051771876,26.555084827869067, 6,15,32.613867164886194,16,60
67,30.02592438588411,15.495682100770182, 5,60,61.190353591024085,17,15
68,1.090452537271923,0.3090370080849012, 9,60,1.5117917891274186,17,15
69,11.650183093086936,11.426230652357244,19,45,12.051874456829388, 7,15
70,29.16335791587517,27.887903499260542, 7,60,30.425252947167525,19,15
71,29.163342681922483,27.887903499260542, 8,15,30.425252947167525,19,30
72,0.9730925809250909,0.2925959213504464, 9,15,1.3985544791011066, 6,15
73,29.250670719023727,26.944014536286893, 6,15,31.415590582183405,15,60
74,32.357784598425184,12.865232456873901, 5,60,61.85663777194841,13,45
75,0.8122368829335334,0.2705945958035675, 7,60,1.1639056324924615,20,15
76,13.388952458686063,13.087086752270842,17,45,14.018858038004675,19,45
10,0.0,0, 1,15,0, 1,15
11,9.,9, 1,15,9, 1,15
4,1, 7
50,-30412800.0,-316800.0,21, 1,15,-316800.0,21, 1,15
51,30412800.0,316800.0,21, 1,15,316800.0,21, 1,15
52,0.0,0.0,21, 1,15,0.0,21, 1,15
1,DENVER CENTENNIAL  GOLDEN   N ANN HTG 99% CONDNS DB,  37.62,-122.40,  -8.00,   2.00
2,1,12,21, 0, 1, 0.00,60.00,WinterDesignDay
7,-15.5
8,1.25
9,1.25
49,0.0
53,-18.18563601581278
77,-18.188744144570784
78,-0.028218392797712433
79,-0.028275614095439057
2,1,12,21, 0, 2, 0.00,60.00,WinterDesignDay
7,-15.5
8,3.25
9,3.25
49,0.0
53,-18.1857087577846
77,-18.188815190730697
78,-0.027764936833069687
79,-0.027821239895399474
2,1,12,21, 0, 3, 0.00,60.00,WinterDesignDay
7,-15.5
8,3.375
9,3.375
49,0.0
53,-18.18578032975063
77,-18.188885095180517
78,-0.027318757346579403
79,-0.027374156866387545
2,1,12,21, 0, 4, 0.00,60.00,WinterDesignDay
7,-15.5
8,1.125
9,1.125
49,0.0
53,-18.185850750522906
77,-18.18895387624206
78,-0.02687973795251075
79,-0.026934248381704627
2,1,12,21, 0, 5, 0.00,60.00,WinterDesignDay
7,-15.5
8,1.875
9,1.875
49,0.0
53,-18.185920038611236
77,-18.18902155194401
78,-0.026447764123357143
79,-0.026501399682226593
2,1,12,21, 0, 6, 0.00,60.00,WinterDesignDay
7,-15.5
8,3.0
9,3.0
49,0.0
53,-18.185988212228043
77,-18.18908814002669
78,-0.026022723136386983
79,-0.02607549783114013
2,1,12,21, 0, 7, 0.00,60.00,WinterDesignDay
7,-15.5
8,3.0
9,3.0
49,0.0
53,-18.186055289293137
77,-18.189153657946513
78,-0.02560450406279635
79,-0.02565643166160523
2,1,12,21, 0, 8, 0.00,60.00,WinterDesignDay
7,-15.5
8,3.0
9,3.0
49,0.0
53,-18.1861212874384
77,-18.18921812288057
78,-0.025192997737589984
79,-0.025244091803802857
2,1,12,21, 0, 9, 0.00,60.00,WinterDesignDay
7,-15.5
8,3.0
9,3.0
49,0.0
53,-18.186186224012427
77,-18.18928155173105
78,-0.02478809672797988
79,-0.024838370600538978
2,1,12,21, 0,10, 0.00,60.00,WinterDesignDay
7,-15.5
8,2.375
9,2.375
49,0.0
53,-18.186250116085034
77,-18.189343961129588
78,-0.024389695311512583
79,-0.024439162121571843
2,1,12,21, 0,11, 0.00,60.00,WinterDesignDay
7,-15.5
8,0.75
9,0.75
49,0.0
53,-18.18631298045176
77,-18.18940536744161
78,-0.023997689437442293
79,-0.02404636210913046
2,1,12,21, 0,12, 0.00,60.00,WinterDesignDay
7,-15.5
8,0.0
9,0.0
49,0.0
53,-18.186374833638254
77,-18.189465786770484
78,-0.023611976721045647
79,-0.023659867965832714
2,1,12,21, 0,13, 0.00,60.00,WinterDesignDay
7,-15.5
8,0.0
9,0.0
49,0.0
53,-18.186435691904602
77,-18.189525234961792
78,-0.02323245640110594
79,-0.02327957872699232
2,1,12,21, 0,14, 0.00,60.00,WinterDesignDay
7,-15.5
8,0.0
9,0.0
49,0.0
53,-18.186495571249594
77,-18.189583727607346
78,-0.022859029315566826
79,-0.02290539504345611
2,1,12,21, 0,15, 0.00,60.00,WinterDesignDay
7,-15.5
8,0.0
9,0.0
49,0.0
53,-18.186554487414945
77,-18.1896412800493
78,-0.02249159788778954
79,-0.022537219138186987
2,1,12,21, 0,16, 0.00,60.00,WinterDesignDay
7,-15.5
8,0.0
9,0.0
49,0.0
53,-18.186612455889346
77,-18.189697907384048
78,-0.02213006608645607
79,-0.022174954782553172
2,1,12,21, 0,17, 0.00,60.00,WinterDesignDay
7,-15.5
8,0.0
9,0.0
49,0.0
53,-18.186669491912603
77,-18.189753624466196
78,-0.021774339413754173
79,-0.02181850729521948
2,1,12,21, 0,18, 0.00,60.00,WinterDesignDay
7,-15.5
8,0.0
9,0.0
49,0.0
53,-18.18672561047959
77,-18.18980844591236
78,-0.021424324885138013
79,-0.021467783488702045
2,1,12,21, 0,19, 0.00,60.00,WinterDesignDay
7,-15.5
8,0.0
9,0.0
49,0.0
53,-18.186780826344165
77,-18.18986238610502
78,-0.021079930980812733
79,-0.021122691675906462
2,1,12,21, 0,20, 0.00,60.00,WinterDesignDay
7,-15.5
8,0.0
9,0.0
49,0.0
53,-18.1868351540231
77,-18.1899154591962
78,-0.020741067649220124
79,-0.020783141617272616
2,1,12,21, 0,21, 0.00,60.00,WinterDesignDay
7,-15.5
8,0.0
9,0.0
49,0.0
53,-18.186888607799823
77,-18.189967679111177
78,-0.020407646273211455
79,-0.020449044519400234
2,1,12,21, 0,22, 0.00,60.00,WinterDesignDay
7,-15.5
8,0.0
9,0.0
49,0.0
53,-18.186941201728192
77,-18.19001905955206
78,-0.020079579644071366
79,-0.02012031300005722
2,1,12,21, 0,23, 0.00,60.00,WinterDesignDay
7,-15.5
8,0.0
9,0.0
49,0.0
53,-18.186992949636178
77,-18.190069614001374
78,-0.019756781943636614
79,-0.019796861072260846
2,1,12,21, 0,24, 0.00,60.00,WinterDesignDay
7,-15.5
8,0.0
9,0.0
49,0.0
53,-18.1870438651295
77,-18.19011935572555
78,-0.01943916873295981
79,-0.019478604111933227
3,1,12,21, 0,WinterDesignDay
54,-18.124732696569655,-18.125359677062406,24,60,-18.124020906371776, 1,15
55,-17.462736604147498,-17.46276109990295,24,60,-17.462708794987137, 1,15
56,0.5258869672940145,0.5257687732693437, 1,15,0.5259911955168665,24,60
57,7.151471263851022,7.1514704672856,24,60,7.151472168179868, 1,15
58,-18.123065330977596,-18.123690900484938,24,60,-18.12235514306133, 1,15
59,-17.462670035359583,-17.462694478422208,24,60,-17.462642286037237, 1,15
60,0.5303634454253819,0.5302429543263262, 1,15,0.5304696926568371,24,60
61,7.151473419866772,7.1514726249585685,24,60,7.151474322313592, 1,15
62,-18.120565173584986,-18.121192203681648,24,60,-18.119853327218987, 1,15
63,-17.416528767466286,-17.416552710824316,24,60,-17.41650158542349, 1,15
64,0.5369376625156104,0.5368244311138989, 1,15,0.5370375160611717,24,60
65,7.416456850226685,7.4164559163633985,24,60,7.416457910425396, 1,15
66,-18.118799345584225,-18.119424971510156,24,60,-18.11808909376422, 1,15
67,-17.416459881421318,-17.41648377352076,24,60,-17.416432757587884, 1,15
68,0.54148555184622,0.5413701247004504, 1,15,0.5415873353910112,24,60
69,7.4164595261838855,7.416458594258351,24,60,7.416460584181985, 1,15
70,-18.19274097777191,-18.19350542492043,24,60,-18.19187309183007, 1,15
71,-18.192723758200092,-18.193491311336324,24,60,-18.19185234602539, 1,15
72,0.1127375425052634,0.11142558321415989, 1,15,0.11387577288309758,24,60
73,-18.260546669892463,-18.261212681504947,24,60,-18.259790567372406, 1,15
74,-20.30544016821764,-20.30545010567067,24,60,-20.305428886519216, 1,15
75,0.629639251907652,0.6296367458934505, 1,15,0.6296412959307696,24,60
76,8.618890007553375,8.618889746647902,24,60,8.618890303752098, 1,15
10,0.0,0, 1,15,0, 1,15
11,10.,10, 1,15,10, 1,15
4,1,12
50,-30412800.0,-316800.0,21, 1,15,-316800.0,21, 1,15
51,30412800.0,316800.0,21, 1,15,316800.0,21, 1,15
52,0.0,0.0,21, 1,15,0.0,21, 1,15
1,RUN PERIOD 1,  37.62,-122.40,  -8.00,   2.00
2,1, 1, 1, 0, 1, 0.00,60.00,Tuesday
7,7.0125
8,1.25
9,1.25
49,0.0
53,12.289357224068603
77,12.431106683423817
78,-82.36562165713102
79,-79.56962271242222
2,1, 1, 1, 0, 2, 0.00,60.00,Tuesday
7,7.2
8,3.25
9,3.25
49,0.0
53,12.173668583256966
77,12.25677347916438
78,-28.789267594927033
79,-39.06924039772184
2,1, 1, 1, 0, 3, 0.00,60.00,Tuesday
7,6.8875
8,3.375
9,3.375
49,0.0
53,12.055460838334222
77,12.164683045691849
78,-51.585629699251506
79,-44.510293382661914
2,1, 1, 1, 0, 4, 0.00,60.00,Tuesday
7,6.324999999999999
8,1.125
9,1.125
49,0.0
53,11.822474672623038
77,11.968178815126032
78,-87.63015207873802
79,-83.34143470786279
2,1, 1, 1, 0, 5, 0.00,60.00,Tuesday
7,5.0375
8,1.875
9,1.875
49,0.0
53,11.593195796089416
77,11.727677939726963
78,-76.55027874161652
79,-79.90663320470452
2,1, 1, 1, 0, 6, 0.00,60.00,Tuesday
7,4.4
8,3.0
9,3.0
49,0.0
53,11.3824036059995
77,11.517766391226939
78,-74.75608748821176
79,-74.54237626576914
2,1, 1, 1, 0, 7, 0.00,60.00,Tuesday
7,5.4624999999999995
8,3.0
9,3.0
49,0.0
53,11.190666688888802
77,11.318770236613672
78,-66.81113137046177
79,-68.02053648932004
2,1, 1, 1, 0, 8, 0.00,60.00,Tuesday
7,5.4125
8,3.0
9,3.0
49,0.0
53,11.337246316382686
77,11.247138637641982
78,91.62775797221468
79,46.93908312464795
2,1, 1, 1, 0, 9, 0.00,60.00,Tuesday
7,6.750000000000001
8,3.0
9,3.0
49,0.0
53,12.469788760972701
77,11.940212360229882
78,482.1399389462167
79,401.3229524385778
2,1, 1, 1, 0,10, 0.00,60.00,Tuesday
7,8.487499999999999
8,2.375
9,2.375
49,0.0
53,13.407893570568993
77,13.020068778712282
78,497.9876191341169
79,513.1828788640865
2,1, 1, 1, 0,11, 0.00,60.00,Tuesday
7,9.2125
8,0.75
9,0.75
49,0.0
53,13.961367052413316
77,13.96263732203493
78,182.86664051143944
79,218.15763796530626
2,1, 1, 1, 0,12, 0.00,60.00,Tuesday
7,9.775
8,0.0
9,0.0
49,0.0
53,14.166317698324256
77,14.247156253028182
78,65.26622824021872
79,65.09574147685427
2,1, 1, 1, 0,13, 0.00,60.00,Tuesday
7,10.375
8,0.0
9,0.0
49,0.0
53,14.429419872497018
77,14.453446425316534
78,96.08748431994093
79,87.73506202172327
2,1, 1, 1, 0,14, 0.00,60.00,Tuesday
7,10.9125
8,0.0
9,0.0
49,0.0
53,14.971876291176992
77,14.887355051576238
78,208.29617982461545
79,195.2772088085483
2,1, 1, 1, 0,15, 0.00,60.00,Tuesday
7,12.85
8,0.0
9,0.0
49,0.0
53,15.459057096389913
77,15.487425118689373
78,165.49525730941744
79,186.4400223158641
2,1, 1, 1, 0,16, 0.00,60.00,Tuesday
7,13.9
8,0.0
9,0.0
49,0.0
53,15.091732177712673
77,15.50719838851014
78,-190.90411244456467
79,-135.73417232579473
2,1, 1, 1, 0,17, 0.00,60.00,Tuesday
7,12.15
8,0.0
9,0.0
49,0.0
53,14.082799910747076
77,14.57758693795175
78,-363.9276249027795
79,-377.20641273321905
2,1, 1, 1, 0,18, 0.00,60.00,Tuesday
7,11.1
8,0.0
9,0.0
49,0.0
53,13.65269842356227
77,13.842481283638701
78,-152.22769603157445
79,-174.59495948320915
2,1, 1, 1, 0,19, 0.00,60.00,Tuesday
7,10.7875
8,0.0
9,0.0
49,0.0
53,13.425614998647264
77,13.547420680938204
78,-76.4978180863558
79,-80.31781869740414
2,1, 1, 1, 0,20, 0.00,60.00,Tuesday
7,10.6
8,0.0
9,0.0
49,0.0
53,13.298546521652344
77,13.383622715477053
78,-40.35473605953186
79,-44.80558106849075
2,1, 1, 1, 0,21, 0.00,60.00,Tuesday
7,9.5375
8,0.0
9,0.0
49,0.0
53,13.118133589644426
77,13.24237526781586
78,-71.20663219626176
79,-63.99189513108861
2,1, 1, 1, 0,22, 0.00,60.00,Tuesday
7,9.2125
8,0.0
9,0.0
49,0.0
53,12.952255983598052
77,13.051600449620983
78,-51.120336526266385
79,-57.51412760359895
2,1, 1, 1, 0,23, 0.00,60.00,Tuesday
7,8.4
8,0.0
9,0.0
49,0.0
53,12.741901150878661
77,12.88162746129154
78,-83.07204811959767
79,-74.95552569046365
2,1, 1, 1, 0,24, 0.00,60.00,Tuesday
7,7.1125
8,0.0
9,0.0
49,0.0
53,12.51259311300217
77,12.642844656449839
78,-75.47756811593331
79,-79.70522470915272
3,1, 1, 1, 0,Tuesday
54,13.47552224354485,10.61634507003229, 8,15,17.71290686667247,15,30
55,20.350388188158572,2.9014746289234883, 6,60,56.38384675662017,15,30
56,1.2271765675923592,0.7430977339283823,17,15,1.7502776022705702,11,15
57,5.003241308131607,1.6410241248508495, 8,45,7.707683052159769, 5,60
58,13.07242317199826,10.604752495329985, 8,15,15.614295611558216,15,45
59,13.330542806763388,2.9005596232329958, 6,60,44.937833948068786,10,30
60,1.0480946211558069,0.35769106494620273,13,30,1.712312811141328,10,15
61,4.725439826724442,1.698296080253906, 8,15,7.50307063054128,17,30
62,12.816550132832859,10.616051244339456, 8,15,15.609303477648217,15,45
63,9.049286238150282,2.9519036500296303, 6,60,18.668114197771782,15,45
64,0.8935955117974334,0.24163048113645,12,60,1.1581465091762047,17,45
65,4.414999585877454,0.8421613100565432, 9,30,7.867621504245568,17,30
66,12.985495506563252,10.605036213867399, 8,15,17.295617145656294,15,60
67,11.904112083960088,2.9009507590486265, 6,60,46.21067954848499,15,60
68,0.9891727544040937,0.21210570062864118,11,45,1.5793881447274885,15,45
69,4.581135282444378,0.8437240958697259, 9,30,7.821493046619178,16,60
70,13.06156061480445,11.81066015265422, 8,60,14.202198992376179,16,60
71,13.061575019996772,11.81066015265422, 9,15,14.202198992376179,17,15
72,1.0501348973410958,0.2129908100776957, 9,45,1.3217552507600983, 7,30
73,13.02926704510736,10.80809857255348, 8,15,15.802691684764728,15,30
74,10.698374287741515,-2.9396477180219067, 8,30,34.866337966879506,14,45
75,0.8809163936089296,0.20151918120120738, 9,15,1.3024566119479286,17,45
76,5.214921652568083,1.1578218115286638, 9,15,8.987493323725838,17,30
10,0.0,0, 1,15,0, 1,15
11,3.,3, 1,15,3, 1,15
2,2, 1, 2, 0, 1, 0.00,60.00,Wednesday
7,8.075000000000001
8,0.0
9,0.0
49,0.0
53,12.421476950572965
77,12.495766423213075
78,-23.395102929260432
79,-31.5237552620237
2,2, 1, 2, 0, 2, 0.00,60.00,Wednesday
7,7.15
8,1.25
9,0.625
49,0.0
53,12.141661612081187
77,12.330478341337304
78,-125.58839980878938
79,-103.63878697718107
2,2, 1, 2, 0, 3, 0.00,60.00,Wednesday
7,5.7875
8,1.375
9,1.0
49,0.0
53,11.798553524748433
77,11.961987218241275
78,-105.2490829177489
79,-117.09241324207889
2,2, 1, 2, 0, 4, 0.00,60.00,Wednesday
7,4.5375
8,2.25
9,2.25
49,0.0
53,11.50795650149604
77,11.680409462829438
78,-105.33402775417456
79,-102.13487819055466
2,2, 1, 2, 0, 5, 0.00,60.00,Wednesday
7,4.9624999999999995
8,1.125
9,1.125
49,0.0
53,11.352296647912596
77,11.45692680200677
78,-38.694906177333266
79,-51.56137928711202
2,2, 1, 2, 0, 6, 0.00,60.00,Wednesday
7,6.6
8,0.0
9,0.0
49,0.0
53,11.36406183587176
77,11.419919506072967
78,2.594072400163638
79,0.42164550134588863
2,2, 1, 2, 0, 7, 0.00,60.00,Wednesday
7,7.575
8,0.0
9,0.0
49,0.0
53,11.360161090641629
77,11.41898925685297
78,-9.181855339697176
79,-6.111924270569784
2,2, 1, 2, 0, 8, 0.00,60.00,Wednesday
7,7.425
8,0.0
9,0.0
49,0.0
53,11.430484830134626
77,11.409948039715275
78,29.449520309939835
79,16.028555917306637
2,2, 1, 2, 0, 9, 0.00,60.00,Wednesday
7,9.325000000000001
8,0.0
9,0.0
49,0.0
53,12.01016469765653
77,11.732282522369331
78,197.27678361494048
79,177.71582789564508
2,2, 1, 2, 0,10, 0.00,60.00,Wednesday
7,11.287499999999998
8,0.0
9,0.0
49,0.0
53,12.642348198261796
77,12.406610094294939
78,250.15147360168106
79,254.27835465524825
2,2, 1, 2, 0,11, 0.00,60.00,Wednesday
7,13.075
8,0.625
9,0.0
49,0.0
53,13.253099559698567
77,13.063344314150726
78,241.98757772924688
79,232.3937311679396
2,2, 1, 2, 0,12, 0.00,60.00,Wednesday
7,13.9
8,1.625
9,0.625
49,0.0
53,13.801206095656678
77,13.730732432888505
78,186.2278213909861
79,208.2320306432923
2,2, 1, 2, 0,13, 0.00,60.00,Wednesday
7,13.9
8,2.0
9,1.0
49,0.0
53,14.455351807491068
77,14.302082103091854
78,265.1776932072765
79,241.1408457738848
2,2, 1, 2, 0,14, 0.00,60.00,Wednesday
7,13.9
8,2.0
9,1.0
49,0.0
53,14.742235093285839
77,14.828534850830515
78,60.660053508496304
79,96.78546122576364
2,2, 1, 2, 0,15, 0.00,60.00,Wednesday
7,12.837499999999999
8,2.0
9,1.0
49,0.0
53,14.774325406830357
77,14.926369298263356
78,21.58197600699434
79,24.439435474695888
2,2, 1, 2, 0,16, 0.00,60.00,Wednesday
7,12.575
8,1.375
9,1.0
49,0.0
53,14.506714236723493
77,14.82425409136502
78,-130.81149589204944
79,-98.971168161133
2,2, 1, 2, 0,17, 0.00,60.00,Wednesday
7,11.7375
8,1.0
9,0.375
49,0.0
53,13.667546226356674
77,14.101083798082549
78,-307.6060784399619
79,-312.7960488923668
2,2, 1, 2, 0,18, 0.00,60.00,Wednesday
7,10.7875
8,2.25
9,1.25
49,0.0
53,13.24240754904681
77,13.447837481040143
78,-161.7302505249702
79,-172.4177699201835
2,2, 1, 2, 0,19, 0.00,60.00,Wednesday
7,11.287499999999998
8,1.125
9,0.75
49,0.0
53,12.99327324182054
77,13.109840308679459
78,-74.93281808265462
79,-87.10529590351557
2,2, 1, 2, 0,20, 0.00,60.00,Wednesday
7,11.7
8,0.0
9,0.0
49,0.0
53,12.924839929336464
77,12.983734175616846
78,-18.58627423846641
79,-24.257450771595458
2,2, 1, 2, 0,21, 0.00,60.00,Wednesday
7,10.6375
8,0.0
9,0.0
49,0.0
53,12.799003806873106
77,12.90390877254249
78,-54.468358728113145
79,-45.16559020988569
2,2, 1, 2, 0,22, 0.00,60.00,Wednesday
7,9.3125
8,0.0
9,0.0
49,0.0
53,12.518684024272842
77,12.675678546610207
78,-103.81638107264943
79,-98.85419508715992
2,2, 1, 2, 0,23, 0.00,60.00,Wednesday
7,9.2125
8,0.0
9,0.0
49,0.0
53,12.303030904551349
77,12.419320163165334
78,-64.32413473815252
79,-72.96620419835895
2,2, 1, 2, 0,24, 0.00,60.00,Wednesday
7,9.0875
8,0.0
9,0.0
49,0.0
53,12.127994540541307
77,12.249820835276315
78,-64.76454062167308
79,-61.99107320868474
3,2, 1, 2, 0,Wednesday
54,13.049477502048903,10.842505216434256, 4,60,17.06798906923006,13,60
55,17.880641580366483,1.4770132017518491, 4,60,58.67495042784289,13,45
56,1.1641796115976828,0.35706512312925764, 8,60,1.7982558835150373,13,45
57,6.017402574860078,1.6128566132055977, 2,60,14.152335477092237, 9,60
58,12.68711806305364,10.828587292884711, 4,60,15.066734409989321,14,15
59,11.660828605265559,1.4761870214967696, 4,60,29.81541040658036,10,30
60,1.0233186747942835,0.36029292205207825,15,45,1.4047077571730444,10,45
61,5.7650389619074325,1.6712538803541634, 2,60,14.133102515906453, 9,60
62,12.552939687481667,10.840553288356956, 5,15,15.05728168356778,14,15
63,9.444200427679988,1.4770132058160972, 4,60,21.239746709947205,13,60
64,0.9334346151040007,0.3831857947933044,15,45,1.1773627045501376, 5,15
65,5.425012729402286,1.6711092921275639, 2,60,11.745839447898094, 9,60
66,12.695523862823201,10.82710426815836, 5,15,16.118419409859467,15,30
67,11.787370575826204,1.4761870173801084, 4,60,36.81464504889542,15,60
68,1.009435375428665,0.4087406873574634, 9,45,1.3902089455422133,15,45
69,5.5743643319918545,1.6129989973136316, 2,60,11.746208364698553, 9,60
70,12.817294554315858,11.789169151816456, 8,60,13.796743404997883,16,60
71,12.821467910781324,11.789169151816456, 9,15,13.796743404997883,17,15
72,1.0380872908675933,0.24171920621618842,18,15,1.4102804963736837, 5,30
73,12.692444956205696,11.093979679894804, 5,30,15.188222619926833,13,60
74,9.13360802723683,-4.780033025994043, 4,60,39.320175770571645,13,45
75,0.8761951878153479,0.23428445742399137,15,60,1.2593187687127867,17,45
76,6.615783425385653,1.4579244929752684,18,60,16.769667155730062, 9,45
10,0.0,0, 1,15,0, 1,15
11,4.,4, 1,15,4, 1,15
2,3, 1, 3, 0, 1, 0.00,60.00,Thursday
7,9.2125
8,0.0
9,0.0
49,0.0
53,12.092303273546346
77,12.139043252636563
78,-1.7113841276532682
79,-12.927614516655257
2,3, 1, 3, 0, 2, 0.00,60.00,Thursday
7,9.775
8,0.0
9,0.0
49,0.0
53,12.138272418399364
77,12.1653417908609
78,9.144395686850014
79,10.920406881403846
2,3, 1, 3, 0, 3, 0.00,60.00,Thursday
7,11.375
8,0.0
9,0.0
49,0.0
53,12.138345909200453
77,12.17637464236482
78,-5.2870379024068725
79,-2.0252539096534248
2,3, 1, 3, 0, 4, 0.00,60.00,Thursday
7,13.2625
8,0.0
9,0.0
49,0.0
53,12.307536157239639
77,12.221288658506587
78,47.248082190020355
79,37.26234943004727
2,3, 1, 3, 0, 5, 0.00,60.00,Thursday
7,13.212500000000002
8,0.0
9,0.0
49,0.0
53,12.362899380585455
77,12.331256572129913
78,18.038291006926208
79,25.57681518847086
2,3, 1, 3, 0, 6, 0.00,60.00,Thursday
7,12.425
8,0.0
9,0.0
49,0.0
53,12.294791578443263
77,12.330657351148162
78,-14.317554858257694
79,-11.659052907184979
2,3, 1, 3, 0, 7, 0.00,60.00,Thursday
7,11.5125
8,0.0
9,0.0
49,0.0
53,12.194081313967569
77,12.261320950505475
78,-34.49083410904534
79,-32.035479576821025
2,3, 1, 3, 0, 8, 0.00,60.00,Thursday
7,11.1
8,0.0
9,0.0
49,0.0
53,12.221337368341889
77,12.19506835076067
78,12.642772112176903
79,-1.6716248187745375
2,3, 1, 3, 0, 9, 0.00,60.00,Thursday
7,11.474999999999998
8,0.0
9,0.0
49,0.0
53,12.698109285367668
77,12.454514946890669
78,181.49417542032862
79,157.91426561439323
2,3, 1, 3, 0,10, 0.00,60.00,Thursday
7,12.7
8,0.0
9,0.0
49,0.0
53,13.434849429229132
77,13.166325265302282
78,299.531894880951
79,292.4568387042144
2,3, 1, 3, 0,11, 0.00,60.00,Thursday
7,12.6125
8,0.0
9,0.0
49,0.0
53,13.866252798093765
77,13.844159168353588
78,135.8726181179283
79,169.8650160014138
2,3, 1, 3, 0,12, 0.00,60.00,Thursday
7,13.95
8,0.625
9,0.625
49,0.0
53,14.246186038600868
77,14.152156876664744
78,152.92187840016655
79,127.53784995392036
2,3, 1, 3, 0,13, 0.00,60.00,Thursday
7,15.375000000000002
8,2.25
9,1.625
49,0.0
53,14.822996415626054
77,14.714599736463292
78,209.2685066258835
79,214.42995470708453
2,3, 1, 3, 0,14, 0.00,60.00,Thursday
7,15.912500000000001
8,2.375
9,1.375
49,0.0
53,15.423708840999737
77,15.33616731184419
78,214.8035155524356
79,218.51437661453969
2,3, 1, 3, 0,15, 0.00,60.00,Thursday
7,16.1
8,1.375
9,1.0
49,0.0
53,15.484970141481288
77,15.658140661987442
78,-6.554211741808482
79,24.28991167214315
2,3, 1, 3, 0,16, 0.00,60.00,Thursday
7,14.725
8,1.625
9,1.0
49,0.0
53,15.05075310480089
77,15.408849914228533
78,-178.3924142188394
79,-151.5485885843436
2,3, 1, 3, 0,17, 0.00,60.00,Thursday
7,13.9
8,2.0
9,1.625
49,0.0
53,14.200947156125059
77,14.628508447303728
78,-309.9981614228998
79,-317.3669640218551
2,3, 1, 3, 0,18, 0.00,60.00,Thursday
7,13.212500000000002
8,1.375
9,1.375
49,0.0
53,13.910863964769593
77,14.038158024441163
78,-97.05481760073062
79,-122.12430067539802
2,3, 1, 3, 0,19, 0.00,60.00,Thursday
7,12.425
8,1.0
9,1.0
49,0.0