Program Version,EnergyPlus, Version 9.6.0-f420c06a69, YMD=2022.08.26 06:39
1,5,Environment Title[],Latitude[deg],Longitude[deg],Time Zone[],Elevation[m]
2,8,Day of Simulation[],Month[],Day of Month[],DST Indicator[1=yes 0=no],Hour[],StartMinute[],EndMinute[],DayType
3,5,Cumulative Day of Simulation[],Month[],Day of Month[],DST Indicator[1=yes 0=no],DayType  ! When Daily Report Variables Requested
4,2,Cumulative Days of Simulation[],Month[]  ! When Monthly Report Variables Requested
5,1,Cumulative Days of Simulation[] ! When Run Period Report Variables Requested
6,1,Calendar Year of Simulation[] ! When Annual Report Variables Requested
7,1,Environment,Site Outdoor Air Drybulb Temperature [C] !Hourly
8,1,Environment,Site Total Sky Cover [] !Hourly
9,1,Environment,Site Opaque Sky Cover [] !Hourly
10,7,Environment,Site Daylight Saving Time Status [] !Daily [Value,Min,Hour,Minute,Max,Hour,Minute]
11,7,Environment,Site Day Type Index [] !Daily [Value,Min,Hour,Minute,Max,Hour,Minute]
49,1,ZONE ONE,Zone Total Internal Latent Gain Energy [J] !Hourly
50,9,TEST 352 MINUS,Other Equipment Total Heating Energy [J] !Monthly [Value,Min,Day,Hour,Minute,Max,Day,Hour,Minute]
51,9,TEST 352A,Other Equipment Total Heating Energy [J] !Monthly [Value,Min,Day,Hour,Minute,Max,Day,Hour,Minute]
52,9,ZONE ONE,Zone Other Equipment Total Heating Energy [J] !Monthly [Value,Min,Day,Hour,Minute,Max,Day,Hour,Minute]
53,1,ZONE ONE,Zone Mean Radiant Temperature [C] !Hourly
54,7,ZN001:WALL001,Surface Inside Face Temperature [C] !Daily [Value,Min,Hour,Minute,Max,Hour,Minute]
55,7,ZN001:WALL001,Surface Outside Face Temperature [C] !Daily [Value,Min,Hour,Minute,Max,Hour,Minute]
56,7,ZN001:WALL001,Surface Inside Face Convection Heat Transfer Coefficient [W/m2-K] !Daily [Value,Min,Hour,Minute,Max,Hour,Minute]
57,7,ZN001:WALL001,Surface Outside Face Convection Heat Transfer Coefficient [W/m2-K] !Daily [Value,Min,Hour,Minute,Max,Hour,Minute]
58,7,ZN001:WALL002,Surface Inside Face Temperature [C] !Daily [Value,Min,Hour,Minute,Max,Hour,Minute]
59,7,ZN001:WALL002,Surface Outside Face Temperature [C] !Daily [Value,Min,Hour,Minute,Max,Hour,Minute]
60,7,ZN001:WALL002,Surface Inside Face Convection Heat Transfer Coefficient [W/m2-K] !Daily [Value,Min,Hour,Minute,Max,Hour,Minute]
61,7,ZN001:WALL002,Surface Outside Face Convection Heat Transfer Coefficient [W/m2-K] !Daily [Value,Min,Hour,Minute,Max,Hour,Minute]
62,7,ZN001:WALL003,Surface Inside Face Temperature [C] !Daily [Value,Min,Hour,Minute,Max,Hour,Minute]
63,7,ZN001:WALL003,Surface Outside Face Temperature [C] !Daily [Value,Min,Hour,Minute,Max,Hour,Minute]
64,7,ZN001:WALL003,Surface Inside Face Convection Heat Transfer Coefficient [W/m2-K] !Daily [Value,Min,Hour,Minute,Max,Hour,Minute]
65,7,ZN001:WALL003,Surface Outside Face Convection Heat Transfer Coefficient [W/m2-K] !Daily [Value,Min,Hour,Minute,Max,Hour,Minute]
66,7,ZN001:WALL004,Surface Inside Face Temperature [C] !Daily [Value,Min,Hour,Minute,Max,Hour,Minute]
67,7,ZN001:WALL004,Surface Outside Face Temperature [C] !Daily [Value,Min,Hour,Minute,Max,Hour,Minute]
68,7,ZN001:WALL004,Surface Inside Face Convection Heat Transfer Coefficient [W/m2-K] !Daily [Value,Min,Hour,Minute,Max,Hour,Minute]
69,7,ZN001:WALL004,Surface Outside Face Convection Heat Transfer Coefficient [W/m2-K] !Daily [Value,Min,Hour,Minute,Max,Hour,Minute]
70,7,ZN001:FLR001,Surface Inside Face Temperature [C] !Daily [Value,Min,Hour,Minute,Max,Hour,Minute]
71,7,ZN001:FLR001,Surface Outside Face Temperature [C] !Daily [Value,Min,Hour,Minute,Max,Hour,Minute]
72,7,ZN001:FLR001,Surface Inside Face Convection Heat Transfer Coefficient [W/m2-K] !Daily [Value,Min,Hour,Minute,Max,Hour,Minute]
73,7,ZN001:ROOF001,Surface Inside Face Temperature [C] !Daily [Value,Min,Hour,Minute,Max,Hour,Minute]
74,7,ZN001:ROOF001,Surface Outside Face Temperature [C] !Daily [Value,Min,Hour,Minute,Max,Hour,Minute]
75,7,ZN001:ROOF001,Surface Inside Face Convection Heat Transfer Coefficient [W/m2-K] !Daily [Value,Min,Hour,Minute,Max,Hour,Minute]
76,7,ZN001:ROOF001,Surface Outside Face Convection Heat Transfer Coefficient [W/m2-K] !Daily [Value,Min,Hour,Minute,Max,Hour,Minute]
77,1,ZONE ONE,Zone Mean Air Temperature [C] !Hourly
78,1,ZONE ONE,Zone Air Heat Balance Surface Convection Rate [W] !Hourly
79,1,ZONE ONE,Zone Air Heat Balance Air Energy Storage Rate [W] !Hourly
End of Data Dictionary
1,DENVER CENTENNIAL  GOLDEN   N ANN CLG 1% CONDNS DB=>MWB,  37.62,-122.40,  -8.00,   2.00
2,1, 7,21, 0, 1, 0.00,60.00,SummerDesignDay
7,18.966
8,1.25
9,1.25
49,0.0
53,28.204517189868092
77,28.36518448779148
78,-92.45077097682174
79,-92.37352749987942
2,1, 7,21, 0, 2, 0.00,60.00,SummerDesignDay
7,18.244
8,3.25
9,3.25
49,0.0
53,27.915022897344475
77,28.07535760180163
78,-90.15431119598972
79,-90.66402408444901
2,1, 7,21, 0, 3, 0.00,60.00,SummerDesignDay
7,17.731
8,3.375
9,3.375
49,0.0
53,27.634353022900775
77,27.794065318683455
78,-88.01597500735426
79,-88.27492922057212
2,1, 7,21, 0, 4, 0.00,60.00,SummerDesignDay
7,17.275000000000002
8,1.125
9,1.125
49,0.0
53,27.35524620961139
77,27.516257282014003
78,-88.3204574755473
79,-88.21632201990715
2,1, 7,21, 0, 5, 0.00,60.00,SummerDesignDay
7,16.913999999999998
8,1.875
9,1.875
49,0.0
53,27.07973343271787
77,27.23960880056964
78,-86.65303621887288
79,-87.0231391805834
2,1, 7,21, 0, 6, 0.00,60.00,SummerDesignDay
7,16.990000000000002
8,3.0
9,3.0
49,0.0
53,27.00704101545432
77,27.051212537898152
78,3.503839012560359
79,-19.371136334540047
2,1, 7,21, 0, 7, 0.00,60.00,SummerDesignDay
7,17.769
8,3.0
9,3.0
49,0.0
53,27.39933611353179
77,27.287024985760322
78,108.19766252171569
79,107.78142620360886
2,1, 7,21, 0, 8, 0.00,60.00,SummerDesignDay
7,19.783
8,3.0
9,3.0
49,0.0
53,27.774297658960812
77,27.627103938496774
78,112.01253724410579
79,109.31100473821377
2,1, 7,21, 0, 9, 0.00,60.00,SummerDesignDay
7,22.557
8,3.0
9,3.0
49,0.0
53,28.231620356127976
77,28.03859608213747
78,154.00231233708237
79,147.20855520252675
2,1, 7,21, 0,10, 0.00,60.00,SummerDesignDay
7,25.255000000000003
8,2.375
9,2.375
49,0.0
53,28.782782752226847
77,28.572314636626373
78,174.87200245767488
79,174.92003936465088
2,1, 7,21, 0,11, 0.00,60.00,SummerDesignDay
7,27.649
8,0.75
9,0.75
49,0.0
53,29.28972850897221
77,29.10762559247381
78,159.77114266653388
79,162.49517611559426
2,1, 7,21, 0,12, 0.00,60.00,SummerDesignDay
7,29.454
8,0.0
9,0.0
49,0.0
53,29.703410535268063
77,29.564406543519155
78,125.70742125509292
79,130.60988124352954
2,1, 7,21, 0,13, 0.00,60.00,SummerDesignDay
7,30.784
8,0.0
9,0.0
49,0.0
53,30.07658984624443
77,29.938572344357297
78,122.96650744212542
79,119.2076136737061
2,1, 7,21, 0,14, 0.00,60.00,SummerDesignDay
7,31.715
8,0.0
9,0.0
49,0.0
53,30.481954310822243
77,30.354807149935954
78,128.35577635097823
79,130.96465043660552
2,1, 7,21, 0,15, 0.00,60.00,SummerDesignDay
7,32.0
8,0.0
9,0.0
49,0.0
53,30.770977495472163
77,30.707339337297
78,88.54835773111168
79,94.72004939022152
2,1, 7,21, 0,16, 0.00,60.00,SummerDesignDay
7,31.43
8,0.0
9,0.0
49,0.0
53,30.874827426647595
77,30.901672977642917
78,31.067465073580145
79,38.89366797787633
2,1, 7,21, 0,17, 0.00,60.00,SummerDesignDay
7,30.328
8,0.0
9,0.0
49,0.0
53,30.827386187005708
77,30.93012474676935
78,-3.8613671041054123
79,-2.4097435583587847
2,1, 7,21, 0,18, 0.00,60.00,SummerDesignDay
7,28.922
8,0.0
9,0.0
49,0.0
53,30.69911903767541
77,30.877913367287583
78,-42.092899462949575
79,-32.70363880200384
2,1, 7,21, 0,19, 0.00,60.00,SummerDesignDay
7,26.927
8,0.0
9,0.0
49,0.0
53,30.234029042449137
77,30.547154278493025
78,-182.2743226750766
79,-159.7495071645443
2,1, 7,21, 0,20, 0.00,60.00,SummerDesignDay
7,25.027
8,0.0
9,0.0
49,0.0
53,29.656586311430843
77,29.879542167906585
78,-177.18084600764314
79,-196.8759176564517
2,1, 7,21, 0,21, 0.00,60.00,SummerDesignDay
7,23.544999999999998
8,0.0
9,0.0
49,0.0
53,29.34714664461532
77,29.492492078993166
78,-91.42738907615677
79,-93.92782536331507
2,1, 7,21, 0,22, 0.00,60.00,SummerDesignDay
7,22.177
8,0.0
9,0.0
49,0.0
53,29.0690458123477
77,29.215841243306325
78,-87.34238976955214
79,-86.87253118345089
2,1, 7,21, 0,23, 0.00,60.00,SummerDesignDay
7,20.999000000000002
8,0.0
9,0.0
49,0.0
53,28.788088294044663
77,28.93808266488694
78,-87.33836292264613
79,-87.52740973339047
2,1, 7,21, 0,24, 0.00,60.00,SummerDesignDay
7,19.935000000000002
8,0.0
9,0.0
49,0.0
53,28.500883763181957
77,28.657244081727793
78,-90.54360833368426
79,-89.98749126059877
3,1, 7,21, 0,SummerDesignDay
54,28.911210450302537,26.352243139914638, 6,15,31.415363672298596,15,45
55,27.5566883114395,15.325494062705445, 5,60,47.53131569206881,13,45
56,1.0535479473587044,0.319271854500897,17,45,1.3149859135553121,13,60
57,9.783559487731715,9.64863124735853,16,30,10.128056121272419, 7,15
58,29.056519177289925,26.33771322471537, 6,15,31.05967976225513,15,60
59,30.164750496072354,15.490093487257656, 5,60,53.46436962013856, 9,45
60,1.083132666174112,0.19296249405510174,17,45,1.5088757788891973, 9,60
61,11.643735672782837,11.426211433140999,12,15,11.981783197405862,19,60
62,28.811792789663382,26.361225885068237, 6,15,31.04965040867025,15,60
63,25.618176841852016,15.490707020711024, 5,60,35.67819256813072,14,60
64,0.8811263527670957,0.3262006830414379, 9,45,1.1758221492280434, 6,15
65,11.653311348670814,11.475291327743907,19,15,12.09571731813413, 6,45
66,29.041642084175802,26.33756688633066, 6,15,32.487041237895944,16,60
67,30.021666422100182,15.490093487257656, 5,60,61.18744187535502,17,15
68,1.09423499744843,0.3805812942295102, 9,45,1.5171005306945438,17,15
69,11.6499395469042,11.426229787263932,19,45,12.047843941979405, 7,15
70,28.981389747740025,27.67834520035595, 7,60,30.267845359327247,19,15
71,28.98137095156704,27.67834520035595, 8,15,30.267845359327247,19,30
72,0.9820921768518484,0.2626067916352522, 9,15,1.4105856779184303, 6,15
73,29.073701964173694,26.719123406521675, 6,15,31.297480873880037,15,60
74,32.3560577750363,12.863001193595627, 5,60,61.85567938354072,13,45
75,0.8133693427655527,0.22316908250997095,18,30,1.160822874514475,20,15
76,13.388904648109587,13.087086642281577,17,45,14.01817256678807,19,45
10,0.0,0, 1,15,0, 1,15
11,9.,9, 1,15,9, 1,15
4,1, 7
50,-30412800.0,-316800.0,21, 1,15,-316800.0,21, 1,15
51,30412800.0,316800.0,21, 1,15,316800.0,21, 1,15
52,0.0,0.0,21, 1,15,0.0,21, 1,15
1,DENVER CENTENNIAL  GOLDEN   N ANN HTG 99% CONDNS DB,  37.62,-122.40,  -8.00,   2.00
2,1,12,21, 0, 1, 0.00,60.00,WinterDesignDay
7,-15.5
8,1.25
9,1.25
49,0.0
53,-18.15473227958661
77,-18.15841957886291
78,-0.03029256247601486
79,-0.030356044551648132
2,1,12,21, 0, 2, 0.00,60.00,WinterDesignDay
7,-15.5
8,3.25
9,3.25
49,0.0
53,-18.154815048326373
77,-18.158500025607466
78,-0.029789660086585013
79,-0.02985208814775082
2,1,12,21, 0, 3, 0.00,60.00,WinterDesignDay
7,-15.5
8,3.375
9,3.375
49,0.0
53,-18.154896443010657
77,-18.158579136790166
78,-0.029295107087405015
79,-0.029356498638524173
2,1,12,21, 0, 4, 0.00,60.00,WinterDesignDay
7,-15.5
8,1.125
9,1.125
49,0.0
53,-18.154976486451087
77,-18.158656934585338
78,-0.02880876484566519
79,-0.02886913709685538
2,1,12,21, 0, 5, 0.00,60.00,WinterDesignDay
7,-15.5
8,1.875
9,1.875
49,0.0
53,-18.155055201080543
77,-18.15873344079911
78,-0.028330497032166946
79,-0.02838986690492387
2,1,12,21, 0, 6, 0.00,60.00,WinterDesignDay
7,-15.5
8,3.0
9,3.0
49,0.0
53,-18.15513260895946
77,-18.158808676875534
78,-0.027860169573636462
79,-0.027918553725304773
2,1,12,21, 0, 7, 0.00,60.00,WinterDesignDay
7,-15.5
8,3.0
9,3.0
49,0.0
53,-18.155208731782007
77,-18.15888266390254
78,-0.02739765063531152
79,-0.027455065420662624
2,1,12,21, 0, 8, 0.00,60.00,WinterDesignDay
7,-15.5
8,3.0
9,3.0
49,0.0
53,-18.15528359088219
77,-18.15895542261793
78,-0.026942810555710572
79,-0.026999272083205822
2,1,12,21, 0, 9, 0.00,60.00,WinterDesignDay
7,-15.5
8,3.0
9,3.0
49,0.0
53,-18.15535720723978
77,-18.15902697341513
78,-0.026495521836985336
79,-0.0265510459316644
2,1,12,21, 0,10, 0.00,60.00,WinterDesignDay
7,-15.5
8,2.375
9,2.375
49,0.0
53,-18.155429601486272
77,-18.159097336348914
78,-0.026055659108319862
79,-0.026110261327331487
2,1,12,21, 0,11, 0.00,60.00,WinterDesignDay
7,-15.5
8,0.75
9,0.75
49,0.0
53,-18.15550079391059
77,-18.159166531141086
78,-0.02562309906126181
79,-0.025676794721131654
2,1,12,21, 0,12, 0.00,60.00,WinterDesignDay
7,-15.5
8,0.0
9,0.0
49,0.0
53,-18.155570804464844
77,-18.15923457718596
78,-0.025197720444976035
79,-0.025250524593258883
2,1,12,21, 0,13, 0.00,60.00,WinterDesignDay
7,-15.5
8,0.0
9,0.0
49,0.0
53,-18.155639652769857
77,-18.15930149355581
78,-0.02477940401725709
79,-0.024831331467170197
2,1,12,21, 0,14, 0.00,60.00,WinterDesignDay
7,-15.5
8,0.0
9,0.0
49,0.0
53,-18.155707358120726
77,-18.15936729900622
78,-0.024368032523558014
79,-0.024419097832496475
2,1,12,21, 0,15, 0.00,60.00,WinterDesignDay
7,-15.5
8,0.0
9,0.0
49,0.0
53,-18.155773939492207
77,-18.15943201198136
78,-0.02396349065173231
79,-0.02401370813532469
2,1,12,21, 0,16, 0.00,60.00,WinterDesignDay
7,-15.5
8,0.0
9,0.0
49,0.0
53,-18.155839415544
77,-18.15949565061909
78,-0.023565665010720327
79,-0.023615048743229616
2,1,12,21, 0,17, 0.00,60.00,WinterDesignDay
7,-15.5
8,0.0
9,0.0
49,0.0
53,-18.15590380462602
77,-18.159558232756154
78,-0.023174444083356782
79,-0.02322300790884369
2,1,12,21, 0,18, 0.00,60.00,WinterDesignDay
7,-15.5
8,0.0
9,0.0
49,0.0
53,-18.155967124783558
77,-18.159619775933116
78,-0.022789718207794074
79,-0.022837475746824192
2,1,12,21, 0,19, 0.00,60.00,WinterDesignDay
7,-15.5
8,0.0
9,0.0
49,0.0
53,-18.156029393762285
77,-18.159680297399277
78,-0.02241137954753336
79,-0.022458344186401493
2,1,12,21, 0,20, 0.00,60.00,WinterDesignDay
7,-15.5
8,0.0
9,0.0
49,0.0
53,-18.156090629013256
77,-18.159739814117522
78,-0.02203932205161596
79,-0.022085506947413014
2,1,12,21, 0,21, 0.00,60.00,WinterDesignDay
7,-15.5
8,0.0
9,0.0
49,0.0
53,-18.15615084769781
77,-18.1597983427691
78,-0.021673441433075702
79,-0.02171885954438532
2,1,12,21, 0,22, 0.00,60.00,WinterDesignDay
7,-15.5
8,0.0
9,0.0
49,0.0
53,-18.156210066692353
77,-18.15985589975826
78,-0.021313635134135644
79,-0.02135829918279567
2,1,12,21, 0,23, 0.00,60.00,WinterDesignDay
7,-15.5
8,0.0
9,0.0
49,0.0
53,-18.15626830238201
77,-18.159912523712865
78,-0.020983448316899356
79,-0.02102230389109691
2,1,12,21, 0,24, 0.00,60.00,WinterDesignDay
7,-15.5
8,0.0
9,0.0
49,0.0
53,-18.15632557827867
77,-18.159968291648653
78,-0.020663698689832977
79,-0.020704596317037294
3,1,12,21, 0,WinterDesignDay
54,-18.096976843959624,-18.09768498353079,24,60,-18.096169633350083, 1,15
55,-17.461629211928685,-17.461656856084513,24,60,-17.461597701994197, 1,15
56,0.5190969659552839,0.5189714730731616, 1,15,0.5192073447573646,24,60
57,7.1515071526794145,7.151506252571822,24,60,7.151508178697382, 1,15
58,-18.09443841605753,-18.09514399794422,24,60,-18.093634121811792, 1,15
59,-17.461527861292016,-17.46155541008247,24,60,-17.461496460125666, 1,15
60,0.5260574255131781,0.5259273049571588, 1,15,0.526171851977426,24,60
61,7.151510439120394,7.151509542021609,24,60,7.151511461706828, 1,15
62,-18.09284890078246,-18.093557086674796,24,60,-18.09204163768802, 1,15
63,-17.415448241652793,-17.4154752624529,24,60,-17.41541744224852, 1,15
64,0.5303240782780921,0.530203984232861, 1,15,0.5304297102967354,24,60
65,7.416498848285997,7.4164977931827085,24,60,7.416500050977961, 1,15
66,-18.090153861952043,-18.09085950229471,24,60,-18.089349501393027, 1,15
67,-17.415343101753113,-17.415370029777463,24,60,-17.415312408163896, 1,15
68,0.5374048029269484,0.5372802934426426, 1,15,0.5375142971000759,24,60
69,7.416502936853683,7.416501885267597,24,60,7.4165041355343035, 1,15
70,-18.161418578044852,-18.162287094831946,24,60,-18.160428501124795, 1,15
71,-18.161398970190792,-18.162271132997848,24,60,-18.16040474084141, 1,15
72,0.10001080168132126,0.1, 1,15,0.10024304960870792,24,60
73,-18.23094213520067,-18.23169350524134,24,60,-18.230085646072155, 1,15
74,-20.30498728632233,-20.304998489373602,24,60,-20.304974516707976, 1,15
75,0.6314842236171591,0.6314714947482423, 1,15,0.6314950496957509,24,60
76,8.618901851127381,8.618901556930908,24,60,8.618902186468956, 1,15
10,0.0,0, 1,15,0, 1,15
11,10.,10, 1,15,10, 1,15
4,1,12
50,-30412800.0,-316800.0,21, 1,15,-316800.0,21, 1,15
51,30412800.0,316800.0,21, 1,15,316800.0,21, 1,15
52,0.0,0.0,21, 1,15,0.0,21, 1,15
1,RUN PERIOD 1,  37.62,-122.40,  -8.00,   2.00
2,1, 1, 1, 0, 1, 0.00,60.00,Tuesday
7,7.0125
8,1.25
9,1.25
49,0.0
53,12.399615014946946
77,12.546103267378829
78,-80.99530797765428
79,-78.36978877484131
2,1, 1, 1, 0, 2, 0.00,60.00,Tuesday
7,7.2
8,3.25
9,3.25
49,0.0
53,12.277586254625497
77,12.365253703976308
78,-28.65784380164888
79,-38.60063469708944
2,1, 1, 1, 0, 3, 0.00,60.00,Tuesday
7,6.8875
8,3.375
9,3.375
49,0.0
53,12.153330937306805
77,12.267490816288475
78,-51.53903632900304
79,-44.628681751068044
2,1, 1, 1, 0, 4, 0.00,60.00,Tuesday
7,6.324999999999999
8,1.125
9,1.125
49,0.0
53,11.911046852619409
77,12.061811934893953
78,-86.62881932702602
79,-82.42578848137917
2,1, 1, 1, 0, 5, 0.00,60.00,Tuesday
7,5.0375
8,1.875
9,1.875
49,0.0
53,11.671874529903688
77,11.811387708959835
78,-75.52823227644346
79,-78.81347991585238
2,1, 1, 1, 0, 6, 0.00,60.00,Tuesday
7,4.4
8,3.0
9,3.0
49,0.0
53,11.452234916904725
77,11.592608184888324
78,-73.70444722384099
79,-73.56600552658827
2,1, 1, 1, 0, 7, 0.00,60.00,Tuesday
7,5.4624999999999995
8,3.0
9,3.0
49,0.0
53,11.2540569193095
77,11.386379771922025
78,-65.27899702230967
79,-66.56132129095627
2,1, 1, 1, 0, 8, 0.00,60.00,Tuesday
7,5.4125
8,3.0
9,3.0
49,0.0
53,11.401228171854616
77,11.313413864780735
78,90.22557752789814
79,46.58519828664043
2,1, 1, 1, 0, 9, 0.00,60.00,Tuesday
7,6.750000000000001
8,3.0
9,3.0
49,0.0
53,12.573819356000499
77,12.033781501237499
78,475.9209669866514
79,396.0119552202315
2,1, 1, 1, 0,10, 0.00,60.00,Tuesday
7,8.487499999999999
8,2.375
9,2.375
49,0.0
53,13.558903464135891
77,13.163924278874493
78,493.579289740331
79,508.60450740017336
2,1, 1, 1, 0,11, 0.00,60.00,Tuesday
7,9.2125
8,0.75
9,0.75
49,0.0
53,14.150546939789105
77,14.15192154642775
78,183.24850053242307
79,217.87574494961362
2,1, 1, 1, 0,12, 0.00,60.00,Tuesday
7,9.775
8,0.0
9,0.0
49,0.0
53,14.37905499262193
77,14.460010321930268
78,69.86958166591849
79,69.20579841754869
2,1, 1, 1, 0,13, 0.00,60.00,Tuesday
7,10.375
8,0.0
9,0.0
49,0.0
53,14.661676025375714
77,14.691111883046228
78,97.64676505278669
79,90.54572045812569
2,1, 1, 1, 0,14, 0.00,60.00,Tuesday
7,10.9125
8,0.0
9,0.0
49,0.0
53,15.216594503485073
77,15.139671060885465
78,201.68016275410866
79,189.21138327814595
2,1, 1, 1, 0,15, 0.00,60.00,Tuesday
7,12.85
8,0.0
9,0.0
49,0.0
53,15.710760961258964
77,15.748247339318066
78,156.2269082073153
79,177.2408179699626
2,1, 1, 1, 0,16, 0.00,60.00,Tuesday
7,13.9
8,0.0
9,0.0
49,0.0
53,15.31757644194731
77,15.743168051689306
78,-196.34793002644568
79,-142.4716349132913
2,1, 1, 1, 0,17, 0.00,60.00,Tuesday
7,12.15
8,0.0
9,0.0
49,0.0
53,14.287719117336064
77,14.896726927836717
78,-444.987507779507
79,-396.10881132662706
2,1, 1, 1, 0,18, 0.00,60.00,Tuesday
7,11.1
8,0.0
9,0.0
49,0.0
53,13.847040786304639
77,14.070706230468364
78,-178.36706641431158
79,-214.64112383572095
2,1, 1, 1, 0,19, 0.00,60.00,Tuesday
7,10.7875
8,0.0
9,0.0
49,0.0
53,13.590753519333866
77,13.720059010079423
78,-79.41469309045343
79,-83.92685103518393
2,1, 1, 1, 0,20, 0.00,60.00,Tuesday
7,10.6
8,0.0
9,0.0
49,0.0
53,13.454451467177718
77,13.544180946086703
78,-40.741824114492125
79,-45.23515541729727
2,1, 1, 1, 0,21, 0.00,60.00,Tuesday
7,9.5375
8,0.0
9,0.0
49,0.0
53,13.265257469207086
77,13.394524613606805
78,-71.04478254702512
79,-63.958711855899516
2,1, 1, 1, 0,22, 0.00,60.00,Tuesday
7,9.2125
8,0.0
9,0.0
49,0.0
53,13.090905926800849
77,13.194571069999892
78,-50.63708621955082
79,-56.97228402066451
2,1, 1, 1, 0,23, 0.00,60.00,Tuesday
7,8.4
8,0.0
9,0.0
49,0.0
53,12.871363488936423
77,13.016356653584008
78,-82.55596970189242
79,-74.5157845966441
2,1, 1, 1, 0,24, 0.00,60.00,Tuesday
7,7.1125
8,0.0
9,0.0
49,0.0
53,12.631633524496472
77,12.766826249462385
78,-74.5612919821154
79,-78.75999259311413
3,1, 1, 1, 0,Tuesday
54,13.612710408667198,10.67745087452132, 8,15,17.93529134739417,15,30
55,20.355673864559478,2.9044467531817495, 6,60,56.39084378080535,15,30
56,1.2295374711194502,0.7074871668489428,17,15,1.7435581930021198,11,15
57,5.003215764109744,1.6421809267466976, 8,45,7.708014404121029, 5,60
58,13.213049107225906,10.65918487739232, 8,15,15.855422927160985,15,45
59,13.336411503406074,2.9032238050832824, 6,60,44.942671038007916,10,30
60,1.0516211873876007,0.23428195661931137,13,30,1.7140776937466822,10,15
61,4.725557930289177,1.697406252470666, 8,15,7.505818094468834,17,30
62,12.960376302048468,10.67716204062758, 8,15,15.848030145846014,15,45
63,9.055863892685059,2.954778876836817, 6,60,18.680485670397236,15,45
64,0.8948028401140139,0.16535141349224713,13,30,1.1986139726022305,17,45
65,4.415143775514358,0.835883093442538, 9,30,7.870649183058866,17,30
66,13.126051257252668,10.659470124401173, 8,15,17.54024450977581,15,60
67,11.910028295151648,2.9036125578209653, 6,60,46.219200275753586,15,60
68,1.0010589161727164,0.2985281077269594,11,45,1.5756142626924199,15,45
69,4.5811608791084,0.8384245947455687, 9,30,7.821616961626209,16,60
70,13.209868995968323,11.90040790590638, 8,60,14.399973403299724,16,60
71,13.209883037436098,11.90040790590638, 9,15,14.399973403299724,17,15
72,1.0668776501222694,0.24582426741172672, 9,45,1.3422446135642454, 7,30
73,13.175502704004176,10.863931341344156, 8,15,16.05974381760469,15,30
74,10.700870178024603,-2.938065906226752, 8,30,34.87010681316359,14,45
75,0.8903815626841642,0.19759879876343064, 9,15,1.3486844474133737,17,45
76,5.214984350767551,1.157653429006243, 9,15,8.98763509849587,17,30
10,0.0,0, 1,15,0, 1,15
11,3.,3, 1,15,3, 1,15
2,2, 1, 2, 0, 1, 0.00,60.00,Wednesday
7,8.075000000000001
8,0.0
9,0.0
49,0.0
53,12.534971357378257
77,12.613333858865964
78,-23.153391117578956
79,-31.195682998711806
2,2, 1, 2, 0, 2, 0.00,60.00,Wednesday
7,7.15
8,1.25
9,0.625
49,0.0
53,12.24621930120811
77,12.440495391657395
78,-123.96664552476152
79,-102.43820552711188
2,2, 1, 2, 0, 3, 0.00,60.00,Wednesday
7,5.7875
8,1.375
9,1.0
49,0.0
53,11.889931959980409
77,12.05840355739328
78,-103.11902754873125
79,-114.7728093669832
2,2, 1, 2, 0, 4, 0.00,60.00,Wednesday
7,4.5375
8,2.25
9,2.25
49,0.0
53,11.58810005428607
77,11.766380991329363
78,-103.74031506303868
79,-100.56560339206646
2,2, 1, 2, 0, 5, 0.00,60.00,Wednesday
7,4.9624999999999995
8,1.125
9,1.125
49,0.0
53,11.425189746932759
77,11.53462636309451
78,-37.972326034455264
79,-50.582212761326176
2,2, 1, 2, 0, 6, 0.00,60.00,Wednesday
7,6.6
8,0.0
9,0.0
49,0.0
53,11.435339007386814
77,11.495463172667858
78,2.0648786684587392
79,-0.04093121641815789
2,2, 1, 2, 0, 7, 0.00,60.00,Wednesday
7,7.575
8,0.0
9,0.0
49,0.0
53,11.430150726221964
77,11.49283814519005
78,-9.60990120728759
79,-6.595058188585488
2,2, 1, 2, 0, 8, 0.00,60.00,Wednesday
7,7.425
8,0.0
9,0.0
49,0.0
53,11.499584269377173
77,11.481543095138974
78,28.087373391347022
79,15.004254208922742
2,2, 1, 2, 0, 9, 0.00,60.00,Wednesday
7,9.325000000000001
8,0.0
9,0.0
49,0.0
53,12.09879732568434
77,11.815475665641866
78,194.8329743011342
79,175.25177040588906
2,2, 1, 2, 0,10, 0.00,60.00,Wednesday
7,11.287499999999998
8,0.0
9,0.0
49,0.0
53,12.761943663290829
77,12.520665320669824
78,248.6763130282846
79,252.55335533332456
2,2, 1, 2, 0,11, 0.00,60.00,Wednesday
7,13.075
8,0.625
9,0.0
49,0.0
53,13.407808549150028
77,13.212437325854943
78,242.95007141522862
79,232.89699354710947
2,2, 1, 2, 0,12, 0.00,60.00,Wednesday
7,13.9
8,1.625
9,0.625
49,0.0
53,13.99748451009644
77,13.92398731094462
78,189.7325338712081
79,211.51913273264222
2,2, 1, 2, 0,13, 0.00,60.00,Wednesday
7,13.9
8,2.0
9,1.0
49,0.0
53,14.692068986457505
77,14.539496323187237
78,265.93198377292697
79,243.5369365158461
2,2, 1, 2, 0,14, 0.00,60.00,Wednesday
7,13.9
8,2.0
9,1.0
49,0.0
53,14.97720597441996
77,15.075792690826752
78,51.58299923888241
79,87.31203340722834
2,2, 1, 2, 0,15, 0.00,60.00,Wednesday
7,12.837499999999999
8,2.0
9,1.0
49,0.0
53,14.997535574421775
77,15.158633657098779
78,15.765455378205314
79,18.72122137810762
2,2, 1, 2, 0,16, 0.00,60.00,Wednesday
7,12.575
8,1.375
9,1.0
49,0.0
53,14.708819677070915
77,15.033573660126546
78,-134.90826214547963
79,-103.85776629432387
2,2, 1, 2, 0,17, 0.00,60.00,Wednesday
7,11.7375
8,1.0
9,0.375
49,0.0
53,13.832329832777361
77,14.270303710158203
78,-304.3373543597488
79,-310.04716674298794
2,2, 1, 2, 0,18, 0.00,60.00,Wednesday
7,10.7875
8,2.25
9,1.25
49,0.0
53,13.38689815954856
77,13.592041593600669
78,-157.0539051322067
79,-167.96556202582795
2,2, 1, 2, 0,19, 0.00,60.00,Wednesday
7,11.287499999999998
8,1.125
9,0.75
49,0.0
53,13.129091370539502
77,13.248153534349024
78,-72.34433365923913
79,-83.98267267881259
2,2, 1, 2, 0,20, 0.00,60.00,Wednesday
7,11.7
8,0.0
9,0.0
49,0.0
53,13.056420112740861
77,13.11879248494851
78,-18.495008469144906
79,-23.912484106858454
2,2, 1, 2, 0,21, 0.00,60.00,Wednesday
7,10.6375
8,0.0
9,0.0
49,0.0
53,12.924272878673586
77,13.033671879782348
78,-54.57396545442447
79,-45.422086348991414
2,2, 1, 2, 0,22, 0.00,60.00,Wednesday
7,9.3125
8,0.0
9,0.0
49,0.0
53,12.633634743922943
77,12.794977869705901
78,-102.1912054596839
79,-97.44955305609061
2,2, 1, 2, 0,23, 0.00,60.00,Wednesday
7,9.2125
8,0.0
9,0.0
49,0.0
53,12.409155337649821
77,12.52938246005109
78,-63.00230763566886
79,-71.4865275164951
2,2, 1, 2, 0,24, 0.00,60.00,Wednesday
7,9.0875
8,0.0
9,0.0
49,0.0
53,12.227540848611952
77,12.353691180930987
78,-63.8155755360702
79,-61.05049402037235
3,2, 1, 2, 0,Wednesday
54,13.171249594663314,10.920722189653072, 4,60,17.277081348430183,13,60
55,17.885502969907453,1.481887294204809, 4,60,58.68120797036615,13,45
56,1.1636028422547928,0.3139967499674785, 8,60,1.789330148673143,13,45
57,6.017018980459679,1.6111811402436593, 2,60,14.152316660144454, 9,60
58,12.811035681522865,10.898586822136298, 4,60,15.298480447308474,14,15
59,11.666077324664203,1.4805712720212265, 4,60,29.817899457836504,10,30
60,1.0277754508821686,0.41450682639964004,15,30,1.405060817186769,10,45
61,5.764708009201542,1.6697014722177053, 2,60,14.133087295950517, 9,60
62,12.679661538342964,10.915461817077981, 5,30,15.283908645566946,14,15
63,9.449660108260552,1.4818872982393612, 4,60,21.251269344590437,13,60
64,0.9344082713860068,0.3733966755352772,15,30,1.1791684993787117, 5,15
65,5.424672008185293,1.6694690836474997, 2,60,11.74712653904657, 9,60
66,12.819701610860605,10.894625388132244, 5,30,16.33936729005588,15,30
67,11.792507029157905,1.48057126790301, 4,60,36.82155002388364,15,60
68,1.0131663100944164,0.40725984159899836, 9,45,1.3849403262440043,15,45
69,5.5740425465418335,1.6114101518074528, 2,60,11.747701464552494, 9,60
70,12.953039029627925,11.87950484153204, 8,60,13.978119290696103,16,60
71,12.957458819403955,11.87950484153204, 9,15,13.978119290696103,17,15
72,1.055226384925912,0.16650791566337658,18,15,1.4309397173967602, 5,30
73,12.821404542912768,11.163074637385241, 5,30,15.433241750281306,13,60
74,9.135846599955002,-4.7779189316318, 4,60,39.32380163247005,13,45
75,0.8820774548225488,0.2086152358016224,15,60,1.2638259680824329,17,45
76,6.6157504988238784,1.457701344620595,18,60,16.769105410785276, 9,45
10,0.0,0, 1,15,0, 1,15
11,4.,4, 1,15,4, 1,15
2,3, 1, 3, 0, 1, 0.00,60.00,Thursday
7,9.2125
8,0.0
9,0.0
49,0.0
53,12.187543317148716
77,12.238106064935614
78,-2.1481728624514353
79,-13.07868154404219
2,3, 1, 3, 0, 2, 0.00,60.00,Thursday
7,9.775
8,0.0
9,0.0
49,0.0
53,12.232617872462813
77,12.263223976821244
78,8.203485435326655
79,9.923604518952196
2,3, 1, 3, 0, 3, 0.00,60.00,Thursday
7,11.375
8,0.0
9,0.0
49,0.0
53,12.23208080979629
77,12.272783220699425
78,-5.586788499381698
79,-2.458315100552645
2,3, 1, 3, 0, 4, 0.00,60.00,Thursday
7,13.2625
8,0.0
9,0.0
49,0.0
53,12.404389719823808
77,12.319388898230859
78,46.61953885065493
79,36.84749072940123
2,3, 1, 3, 0, 5, 0.00,60.00,Thursday
7,13.212500000000002
8,0.0
9,0.0
49,0.0
53,12.460140282810624
77,12.432410869286537
78,16.829721196246705
79,24.377091093249305
2,3, 1, 3, 0, 6, 0.00,60.00,Thursday
7,12.425
8,0.0
9,0.0
49,0.0
53,12.388563132429663
77,12.427818671543278
78,-15.58563627505353
79,-13.021240089515148
2,3, 1, 3, 0, 7, 0.00,60.00,Thursday
7,11.5125
8,0.0
9,0.0
49,0.0
53,12.28240589846485
77,12.352371047537465
78,-34.87054412818268
79,-32.47502358872562
2,3, 1, 3, 0, 8, 0.00,60.00,Thursday
7,11.1
8,0.0
9,0.0
49,0.0
53,12.30853318153974
77,12.282364155754799
78,12.808773664211259
79,-1.4980219111293653
2,3, 1, 3, 0, 9, 0.00,60.00,Thursday
7,11.474999999999998
8,0.0
9,0.0
49,0.0
53,12.803370256998946
77,12.554182369366938
78,179.8018270824781
79,156.4755766372789
2,3, 1, 3, 0,10, 0.00,60.00,Thursday
7,12.7
8,0.0
9,0.0
49,0.0
53,13.572984450751873
77,13.298695597664134
78,297.18676089122283
79,289.99975465665733
2,3, 1, 3, 0,11, 0.00,60.00,Thursday
7,12.6125
8,0.0
9,0.0
49,0.0
53,14.03385936396307
77,14.010578967812346
78,136.38823128862268
79,169.90246598805095
2,3, 1, 3, 0,12, 0.00,60.00,Thursday
7,13.95
8,0.625
9,0.625
49,0.0
53,14.438484346569153
77,14.34001165791814
78,155.5532465448331
79,129.78209731858516
2,3, 1, 3, 0,13, 0.00,60.00,Thursday
7,15.375000000000002
8,2.25
9,1.625
49,0.0
53,15.050757310404789
77,14.942741209709778
78,209.76034370041137
79,216.11219592705595
2,3, 1, 3, 0,14, 0.00,60.00,Thursday
7,15.912500000000001
8,2.375
9,1.375
49,0.0
53,15.667469503894981
77,15.58647192073136
78,206.9018596129668
79,211.28620669428028
2,3, 1, 3, 0,15, 0.00,60.00,Thursday
7,16.1
8,1.375
9,1.0
49,0.0
53,15.717574756069054
77,15.901074666692896
78,-13.570027077726074
79,16.563149350485084
2,3, 1, 3, 0,16, 0.00,60.00,Thursday
7,14.725
8,1.625
9,1.0
49,0.0
53,15.25671373541686
77,15.622223026016693
78,-181.25145368673807
79,-155.04587039321865
2,3, 1, 3, 0,17, 0.00,60.00,Thursday
7,13.9
8,2.0
9,1.625
49,0.0
53,14.369911727456294
77,14.80297850136814
78,-305.6468481862628
79,-313.469371099977
2,3, 1, 3, 0,18, 0.00,60.00,Thursday
7,13.212500000000002
8,1.375
9,1.375
49,0.0
53,14.064665073857078
77,14.193235199219313
78,-93.59119599128178
79,-118.21572991668025
2,3, 1, 3, 0,19, 0.00,60.00,Thursday
7,12.425
8,1.0
9,1.0
49,0.0
53,13.907809866692523