Program Version,EnergyPlus, Version 9.6.0-f420c06a69, YMD=2022.08.26 06:39
1,5,Environment Title[],Latitude[deg],Longitude[deg],Time Zone[],Elevation[m]
2,8,Day of Simulation[],Month[],Day of Month[],DST Indicator[1=yes 0=no],Hour[],StartMinute[],EndMinute[],DayType
3,5,Cumulative Day of Simulation[],Month[],Day of Month[],DST Indicator[1=yes 0=no],DayType  ! When Daily Report Variables Requested
4,2,Cumulative Days of Simulation[],Month[]  ! When Monthly Report Variables Requested
5,1,Cumulative Days of Simulation[] ! When Run Period Report Variables Requested
6,1,Calendar Year of Simulation[] ! When Annual Report Variables Requested
7,1,Environment,Site Outdoor Air Drybulb Temperature [C] !Hourly
8,1,Environment,Site Total Sky Cover [] !Hourly
9,1,Environment,Site Opaque Sky Cover [] !Hourly
10,7,Environment,Site Daylight Saving Time Status [] !Daily [Value,Min,Hour,Minute,Max,Hour,Minute]
11,7,Environment,Site Day Type Index [] !Daily [Value,Min,Hour,Minute,Max,Hour,Minute]
49,1,ZONE ONE,Zone Total Internal Latent Gain Energy [J] !Hourly
50,9,TEST 352 MINUS,Other Equipment Total Heating Energy [J] !Monthly [Value,Min,Day,Hour,Minute,Max,Day,Hour,Minute]
51,9,TEST 352A,Other Equipment Total Heating Energy [J] !Monthly [Value,Min,Day,Hour,Minute,Max,Day,Hour,Minute]
52,9,ZONE ONE,Zone Other Equipment Total Heating Energy [J] !Monthly [Value,Min,Day,Hour,Minute,Max,Day,Hour,Minute]
53,1,ZONE ONE,Zone Mean Radiant Temperature [C] !Hourly
54,7,ZN001:WALL001,Surface Inside Face Temperature [C] !Daily [Value,Min,Hour,Minute,Max,Hour,Minute]
55,7,ZN001:WALL001,Surface Outside Face Temperature [C] !Daily [Value,Min,Hour,Minute,Max,Hour,Minute]
56,7,ZN001:WALL001,Surface Inside Face Convection Heat Transfer Coefficient [W/m2-K] !Daily [Value,Min,Hour,Minute,Max,Hour,Minute]
57,7,ZN001:WALL001,Surface Outside Face Convection Heat Transfer Coefficient [W/m2-K] !Daily [Value,Min,Hour,Minute,Max,Hour,Minute]
58,7,ZN001:WALL002,Surface Inside Face Temperature [C] !Daily [Value,Min,Hour,Minute,Max,Hour,Minute]
59,7,ZN001:WALL002,Surface Outside Face Temperature [C] !Daily [Value,Min,Hour,Minute,Max,Hour,Minute]
60,7,ZN001:WALL002,Surface Inside Face Convection Heat Transfer Coefficient [W/m2-K] !Daily [Value,Min,Hour,Minute,Max,Hour,Minute]
61,7,ZN001:WALL002,Surface Outside Face Convection Heat Transfer Coefficient [W/m2-K] !Daily [Value,Min,Hour,Minute,Max,Hour,Minute]
62,7,ZN001:WALL003,Surface Inside Face Temperature [C] !Daily [Value,Min,Hour,Minute,Max,Hour,Minute]
63,7,ZN001:WALL003,Surface Outside Face Temperature [C] !Daily [Value,Min,Hour,Minute,Max,Hour,Minute]
64,7,ZN001:WALL003,Surface Inside Face Convection Heat Transfer Coefficient [W/m2-K] !Daily [Value,Min,Hour,Minute,Max,Hour,Minute]
65,7,ZN001:WALL003,Surface Outside Face Convection Heat Transfer Coefficient [W/m2-K] !Daily [Value,Min,Hour,Minute,Max,Hour,Minute]
66,7,ZN001:WALL004,Surface Inside Face Temperature [C] !Daily [Value,Min,Hour,Minute,Max,Hour,Minute]
67,7,ZN001:WALL004,Surface Outside Face Temperature [C] !Daily [Value,Min,Hour,Minute,Max,Hour,Minute]
68,7,ZN001:WALL004,Surface Inside Face Convection Heat Transfer Coefficient [W/m2-K] !Daily [Value,Min,Hour,Minute,Max,Hour,Minute]
69,7,ZN001:WALL004,Surface Outside Face Convection Heat Transfer Coefficient [W/m2-K] !Daily [Value,Min,Hour,Minute,Max,Hour,Minute]
70,7,ZN001:FLR001,Surface Inside Face Temperature [C] !Daily [Value,Min,Hour,Minute,Max,Hour,Minute]
71,7,ZN001:FLR001,Surface Outside Face Temperature [C] !Daily [Value,Min,Hour,Minute,Max,Hour,Minute]
72,7,ZN001:FLR001,Surface Inside Face Convection Heat Transfer Coefficient [W/m2-K] !Daily [Value,Min,Hour,Minute,Max,Hour,Minute]
73,7,ZN001:ROOF001,Surface Inside Face Temperature [C] !Daily [Value,Min,Hour,Minute,Max,Hour,Minute]
74,7,ZN001:ROOF001,Surface Outside Face Temperature [C] !Daily [Value,Min,Hour,Minute,Max,Hour,Minute]
75,7,ZN001:ROOF001,Surface Inside Face Convection Heat Transfer Coefficient [W/m2-K] !Daily [Value,Min,Hour,Minute,Max,Hour,Minute]
76,7,ZN001:ROOF001,Surface Outside Face Convection Heat Transfer Coefficient [W/m2-K] !Daily [Value,Min,Hour,Minute,Max,Hour,Minute]
77,1,ZONE ONE,Zone Mean Air Temperature [C] !Hourly
78,1,ZONE ONE,Zone Air Heat Balance Surface Convection Rate [W] !Hourly
79,1,ZONE ONE,Zone Air Heat Balance Air Energy Storage Rate [W] !Hourly
End of Data Dictionary
1,DENVER CENTENNIAL  GOLDEN   N ANN CLG 1% CONDNS DB=>MWB,  37.62,-122.40,  -8.00,   2.00
2,1, 7,21, 0, 1, 0.00,60.00,SummerDesignDay
7,18.966
8,1.25
9,1.25
49,0.0
53,27.671592264571323
77,27.846181434979233
78,-83.88301451472718
79,-83.84098712357805
2,1, 7,21, 0, 2, 0.00,60.00,SummerDesignDay
7,18.244
8,3.25
9,3.25
49,0.0
53,27.35432151020338
77,27.528648086410747
78,-81.3494315895777
79,-81.85066843095751
2,1, 7,21, 0, 3, 0.00,60.00,SummerDesignDay
7,17.731
8,3.375
9,3.375
49,0.0
53,27.04817834941917
77,27.22177002771242
78,-79.10295779043827
79,-79.39386876359609
2,1, 7,21, 0, 4, 0.00,60.00,SummerDesignDay
7,17.275000000000002
8,1.125
9,1.125
49,0.0
53,26.744331938937506
77,26.919398848345953
78,-79.37012052712414
79,-79.28541134523402
2,1, 7,21, 0, 5, 0.00,60.00,SummerDesignDay
7,16.913999999999998
8,1.875
9,1.875
49,0.0
53,26.445091297581882
77,26.618808744325566
78,-77.61497758418555
79,-77.98645561125949
2,1, 7,21, 0, 6, 0.00,60.00,SummerDesignDay
7,16.990000000000002
8,3.0
9,3.0
49,0.0
53,26.3647408563575
77,26.418646237881745
78,6.3088838691879285
79,-14.876394521486047
2,1, 7,21, 0, 7, 0.00,60.00,SummerDesignDay
7,17.769
8,3.0
9,3.0
49,0.0
53,26.780195028284037
77,26.67820274164869
78,93.25696799379224
79,94.50806299684078
2,1, 7,21, 0, 8, 0.00,60.00,SummerDesignDay
7,19.783
8,3.0
9,3.0
49,0.0
53,27.16491917375689
77,27.022673493266655
78,92.30741389689015
79,90.07549420266143
2,1, 7,21, 0, 9, 0.00,60.00,SummerDesignDay
7,22.557
8,3.0
9,3.0
49,0.0
53,27.660063186927506
77,27.44597460312562
78,138.37501549270635
79,129.7683467384914
2,1, 7,21, 0,10, 0.00,60.00,SummerDesignDay
7,25.255000000000003
8,2.375
9,2.375
49,0.0
53,28.293612650165144
77,28.05855171477714
78,170.30653700268095
79,169.91432965225368
2,1, 7,21, 0,11, 0.00,60.00,SummerDesignDay
7,27.649
8,0.75
9,0.75
49,0.0
53,28.892632161606283
77,28.693190972278114
78,156.74246702177976
79,159.3043214308064
2,1, 7,21, 0,12, 0.00,60.00,SummerDesignDay
7,29.454
8,0.0
9,0.0
49,0.0
53,29.390692892319244
77,29.23900325753805
78,125.0262324906349
79,129.5251891413712
2,1, 7,21, 0,13, 0.00,60.00,SummerDesignDay
7,30.784
8,0.0
9,0.0
49,0.0
53,29.82627317911173
77,29.68545833038996
78,116.33272695002995
79,114.4657084714677
2,1, 7,21, 0,14, 0.00,60.00,SummerDesignDay
7,31.715
8,0.0
9,0.0
49,0.0
53,30.259395860306647
77,30.138333381694835
78,110.51139767136853
79,113.73613799102634
2,1, 7,21, 0,15, 0.00,60.00,SummerDesignDay
7,32.0
8,0.0
9,0.0
49,0.0
53,30.550738145913343
77,30.493175948347712
78,69.62132029638549
79,75.71517154688277
2,1, 7,21, 0,16, 0.00,60.00,SummerDesignDay
7,31.43
8,0.0
9,0.0
49,0.0
53,30.623914368320257
77,30.657267046182145
78,13.642117166071948
79,21.09208567516884
2,1, 7,21, 0,17, 0.00,60.00,SummerDesignDay
7,30.328
8,0.0
9,0.0
49,0.0
53,30.53993990754184
77,30.63660405596658
78,-13.219216076000276
79,-13.386631637223989
2,1, 7,21, 0,18, 0.00,60.00,SummerDesignDay
7,28.922
8,0.0
9,0.0
49,0.0
53,30.405856516922945
77,30.56681264875458
78,-35.44416376799984
79,-28.16663709314349
2,1, 7,21, 0,19, 0.00,60.00,SummerDesignDay
7,26.927
8,0.0
9,0.0
49,0.0
53,29.910043332412968
77,30.22192403945343
78,-161.38029130422638
79,-140.1069845814725
2,1, 7,21, 0,20, 0.00,60.00,SummerDesignDay
7,25.027
8,0.0
9,0.0
49,0.0
53,29.274624568702805
77,29.50025575661155
78,-156.97548353359235
79,-175.2568824025975
2,1, 7,21, 0,21, 0.00,60.00,SummerDesignDay
7,23.544999999999998
8,0.0
9,0.0
49,0.0
53,28.930849141333294
77,29.084763725968642
78,-81.95490160759277
79,-83.84183081186359
2,1, 7,21, 0,22, 0.00,60.00,SummerDesignDay
7,22.177
8,0.0
9,0.0
49,0.0
53,28.62381100875704
77,28.781838071220193
78,-79.47654827390872
79,-78.94688548480585
2,1, 7,21, 0,23, 0.00,60.00,SummerDesignDay
7,20.999000000000002
8,0.0
9,0.0
49,0.0
53,28.31411776599194
77,28.476029115030826
78,-79.12311836864315
79,-79.37816906226189
2,1, 7,21, 0,24, 0.00,60.00,SummerDesignDay
7,19.935000000000002
8,0.0
9,0.0
49,0.0
53,27.99712383381553
77,28.166875279237935
78,-82.43935479143755
79,-81.91122260271015
3,1, 7,21, 0,SummerDesignDay
54,28.491703480508964,25.747158363801468, 6,15,31.195108642255274,15,45
55,27.54498621095284,15.308041436004492, 5,60,47.524832656311126,13,45
56,1.0385415638780064,0.19283473532274775, 9,30,1.309712641172144,13,60
57,9.782981255953077,9.648634903523881,16,30,10.116163492450026, 7,15
58,28.63665057983036,25.711159587252443, 6,15,30.859928694638988,15,60
59,30.154315363978508,15.474038635978689, 5,60,53.45218255340378, 9,45
60,1.087671557761668,0.27222419090643213,17,60,1.5297075080891183, 9,45
61,11.643062395645893,11.426213196894665,12,15,11.978286557744287,19,60
62,28.396114263690336,25.756011523233756, 6,15,30.83849593067358,15,60
63,25.607549177304012,15.475209859590988, 5,60,35.67320450335272,14,60
64,0.8753152443210833,0.20325752244539366, 8,15,1.1602285906786447, 5,15
65,11.652976851232479,11.475397853010834,19,15,12.111939791932947, 6,45
66,28.62170854210649,25.711011355386074, 6,15,32.257574619841314,16,60
67,30.01114857255868,15.474038635978689, 5,60,61.182085942457086,17,15
68,1.1029824423683188,0.44050494875790486, 9,45,1.5278017080128334,17,15
69,11.649299667886098,11.42622809915559,19,45,12.036894488055319, 7,15
70,28.53404930438172,27.10817963659126, 7,60,29.938637933189572,19,15
71,28.534037269417706,27.10817963659126, 8,15,29.938637933189572,19,30
72,1.0189848412413243,0.1923416615081295, 9,15,1.462073128877842, 6,15
73,28.641647065600356,26.06613913429239, 6,15,31.106040365159682,15,60
74,32.351897983089785,12.856537160681683, 5,60,61.85392281306783,13,45
75,0.8258364498004211,0.2518052613162534,18,30,1.1612759914791237,20,15
76,13.388780523999216,13.087086447971348,17,45,14.016831981862675,19,45
10,0.0,0, 1,15,0, 1,15
11,9.,9, 1,15,9, 1,15
4,1, 7
50,-30412800.0,-316800.0,21, 1,15,-316800.0,21, 1,15
51,30412800.0,316800.0,21, 1,15,316800.0,21, 1,15
52,0.0,0.0,21, 1,15,0.0,21, 1,15
1,DENVER CENTENNIAL  GOLDEN   N ANN HTG 99% CONDNS DB,  37.62,-122.40,  -8.00,   2.00
2,1,12,21, 0, 1, 0.00,60.00,WinterDesignDay
7,-15.5
8,1.25
9,1.25
49,0.0
53,-18.05252124694215
77,-18.058078618752365
78,-0.022129855705277812
79,-0.02218259846590944
2,1,12,21, 0, 2, 0.00,60.00,WinterDesignDay
7,-15.5
8,3.25
9,3.25
49,0.0
53,-18.052593704811553
77,-18.058149871977392
78,-0.021712594147568876
79,-0.021764339515029055
2,1,12,21, 0, 3, 0.00,60.00,WinterDesignDay
7,-15.5
8,3.375
9,3.375
49,0.0
53,-18.05266480024212
77,-18.05821978173013
78,-0.021303222518409548
79,-0.021353989432914847
2,1,12,21, 0, 4, 0.00,60.00,WinterDesignDay
7,-15.5
8,1.125
9,1.125
49,0.0
53,-18.052734558879266
77,-18.058288373413806
78,-0.02090159102335054
79,-0.020951398060706408
2,1,12,21, 0, 5, 0.00,60.00,WinterDesignDay
7,-15.5
8,1.875
9,1.875
49,0.0
53,-18.052803005884886
77,-18.058355671949336
78,-0.020507552722937028
79,-0.02055641810798587
2,1,12,21, 0, 6, 0.00,60.00,WinterDesignDay
7,-15.5
8,3.0
9,3.0
49,0.0
53,-18.052870165946477
77,-18.058421701784553
78,-0.020120963485185772
79,-0.020168905092768356
2,1,12,21, 0, 7, 0.00,60.00,WinterDesignDay
7,-15.5
8,3.0
9,3.0
49,0.0
53,-18.052936063286104
77,-18.058486486903202
78,-0.01974168192738235
79,-0.019788717287796513
2,1,12,21, 0, 8, 0.00,60.00,WinterDesignDay
7,-15.5
8,3.0
9,3.0
49,0.0
53,-18.05300072166922
77,-18.058550050833833
78,-0.019369569363548056
79,-0.01941571568013544
2,1,12,21, 0, 9, 0.00,60.00,WinterDesignDay
7,-15.5
8,3.0
9,3.0
49,0.0
53,-18.05306416441325
77,-18.058612416658445
78,-0.019004489745656272
79,-0.01904976388711445
2,1,12,21, 0,10, 0.00,60.00,WinterDesignDay
7,-15.5
8,2.375
9,2.375
49,0.0
53,-18.053126414396097
77,-18.058673607021028
78,-0.018646309630270697
79,-0.01869072815221439
2,1,12,21, 0,11, 0.00,60.00,WinterDesignDay
7,-15.5
8,0.75
9,0.75
49,0.0
53,-18.053187494064428
77,-18.05873364413592
78,-0.01829489811361107
79,-0.018338477243895816
2,1,12,21, 0,12, 0.00,60.00,WinterDesignDay
7,-15.5
8,0.0
9,0.0
49,0.0
53,-18.053247425441825
77,-18.058792549795974
78,-0.01795012678947261
79,-0.01799288245976111
2,1,12,21, 0,13, 0.00,60.00,WinterDesignDay
7,-15.5
8,0.0
9,0.0
49,0.0
53,-18.053306230136766
77,-18.05885034538062
78,-0.017611869698740623
79,-0.01765381751977363
2,1,12,21, 0,14, 0.00,60.00,WinterDesignDay
7,-15.5
8,0.0
9,0.0
49,0.0
53,-18.053363929350496
77,-18.05890705186373
78,-0.017280003287763357
79,-0.01732115859063822
2,1,12,21, 0,15, 0.00,60.00,WinterDesignDay
7,-15.5
8,0.0
9,0.0
49,0.0
53,-18.053420543884677
77,-18.058962689821385
78,-0.016954406348761886
79,-0.016994784160196365
2,1,12,21, 0,16, 0.00,60.00,WinterDesignDay
7,-15.5
8,0.0
9,0.0
49,0.0
53,-18.053476094148976
77,-18.0590172794394
78,-0.016634959993291343
79,-0.016674575056015037
2,1,12,21, 0,17, 0.00,60.00,WinterDesignDay
7,-15.5
8,0.0
9,0.0
49,0.0
53,-18.05353060016845
77,-18.059070840520818
78,-0.016321547595977037
79,-0.016360414376334165
2,1,12,21, 0,18, 0.00,60.00,WinterDesignDay
7,-15.5
8,0.0
9,0.0
49,0.0
53,-18.0535840815908
77,-18.05912339249317
78,-0.01601405474938078
79,-0.01605218743359518
2,1,12,21, 0,19, 0.00,60.00,WinterDesignDay
7,-15.5
8,0.0
9,0.0
49,0.0
53,-18.053636557693515
77,-18.059174954415653
78,-0.015712369231203116
79,-0.015749781737450307
2,1,12,21, 0,20, 0.00,60.00,WinterDesignDay
7,-15.5
8,0.0
9,0.0
49,0.0
53,-18.053688047390864
77,-18.05922554498614
78,-0.015416380954421882
79,-0.01545308693990914
2,1,12,21, 0,21, 0.00,60.00,WinterDesignDay
7,-15.5
8,0.0
9,0.0
49,0.0
53,-18.053738569240736
77,-18.059275182548053
78,-0.015125981927377463
79,-0.015161994786457913
2,1,12,21, 0,22, 0.00,60.00,WinterDesignDay
7,-15.5
8,0.0
9,0.0
49,0.0
53,-18.053788141451378
77,-18.0593238850971
78,-0.014841066231013667
79,-0.01487639908393804
2,1,12,21, 0,23, 0.00,60.00,WinterDesignDay
7,-15.5
8,0.0
9,0.0
49,0.0
53,-18.053836781888016
77,-18.059371670287977
78,-0.014561529943110774
79,-0.014596195688863287
2,1,12,21, 0,24, 0.00,60.00,WinterDesignDay
7,-15.5
8,0.0
9,0.0
49,0.0
53,-18.05388450807929
77,-18.059418555440786
78,-0.014287271124485468
79,-0.014321282404479349
3,1,12,21, 0,WinterDesignDay
54,-18.00406071979886,-18.00466321770212,24,60,-18.003361777740764, 1,15
55,-17.457920334341882,-17.45794376803524,24,60,-17.457893149783967, 1,15
56,0.4972656625223018,0.4971298099724066, 1,15,0.497382117635733,24,60
57,7.151627649025468,7.151626882553261,24,60,7.151628538197984, 1,15
58,-17.999642978669673,-18.000241181326643,24,60,-17.998949015478516, 1,15
59,-17.457743953316616,-17.457767228276975,24,60,-17.45771695274985, 1,15
60,0.5102994447727044,0.5101560544204072, 1,15,0.5104224349328162,24,60
61,7.151633391270047,7.151632629846748,24,60,7.151634274590193, 1,15
62,-18.00005829601223,-18.000660853474795,24,60,-17.999359284065857, 1,15
63,-17.411829096485253,-17.411852004015792,24,60,-17.411802522269294, 1,15
64,0.5091026088902731,0.5089732049513119, 1,15,0.5092135398068474,24,60
65,7.416639822274171,7.416638924157848,24,60,7.416640864164349, 1,15
66,-17.99532066114857,-17.99591894782081,24,60,-17.99462659961784, 1,15
67,-17.41164427512479,-17.411667028406733,24,60,-17.411617879697875, 1,15
68,0.5224380102987168,0.5223014788565076, 1,15,0.5225551211914622,24,60
69,7.41664703465418,7.416646142427166,24,60,7.4166480697180255, 1,15
70,-18.05736354125123,-18.058111743585975,24,60,-18.056495707031864, 1,15
71,-18.057346486924807,-18.05809824491109,24,60,-18.05647452824924, 1,15
72,0.17137120031481437,0.1670006068754577,24,60,0.17624993765327934, 1,15
73,-18.132872898948655,-18.133509736709332,24,60,-18.132134116728437, 1,15
74,-20.303486216321392,-20.303495679683216,24,60,-20.30347523812462, 1,15
75,0.6383869099192296,0.6383755445449729,24,60,0.6384007584636306, 1,15
76,8.618941111580662,8.618940862841326,24,60,8.618941400137299, 1,15
10,0.0,0, 1,15,0, 1,15
11,10.,10, 1,15,10, 1,15
4,1,12
50,-30412800.0,-316800.0,21, 1,15,-316800.0,21, 1,15
51,30412800.0,316800.0,21, 1,15,316800.0,21, 1,15
52,0.0,0.0,21, 1,15,0.0,21, 1,15
1,RUN PERIOD 1,  37.62,-122.40,  -8.00,   2.00
2,1, 1, 1, 0, 1, 0.00,60.00,Tuesday
7,7.0125
8,1.25
9,1.25
49,0.0
53,12.558327311123492
77,12.721521724089943
78,-75.50179243689462
79,-73.39609666851983
2,1, 1, 1, 0, 2, 0.00,60.00,Tuesday
7,7.2
8,3.25
9,3.25
49,0.0
53,12.415818789938326
77,12.518653634888105
78,-26.799767786599208
79,-35.709208337240014
2,1, 1, 1, 0, 3, 0.00,60.00,Tuesday
7,6.8875
8,3.375
9,3.375
49,0.0
53,12.27261295210497
77,12.403276559998583
78,-49.80048006671538
79,-43.427213293304575
2,1, 1, 1, 0, 4, 0.00,60.00,Tuesday
7,6.324999999999999
8,1.125
9,1.125
49,0.0
53,11.998426293756308
77,12.165893164328713
78,-81.39773203511496
79,-77.66287271757687
2,1, 1, 1, 0, 5, 0.00,60.00,Tuesday
7,5.0375
8,1.875
9,1.875
49,0.0
53,11.723324179806326
77,11.880868094068855
78,-71.46725286599421
79,-74.2537370840545
2,1, 1, 1, 0, 6, 0.00,60.00,Tuesday
7,4.4
8,3.0
9,3.0
49,0.0
53,11.472606932747162
77,11.630241991065873
78,-68.93468820531223
79,-69.04237602943775
2,1, 1, 1, 0, 7, 0.00,60.00,Tuesday
7,5.4624999999999995
8,3.0
9,3.0
49,0.0
53,11.25340005462206
77,11.39975670641866
78,-58.82835420606672
79,-60.3815090175537
2,1, 1, 1, 0, 8, 0.00,60.00,Tuesday
7,5.4125
8,3.0
9,3.0
49,0.0
53,11.41874293374562
77,11.329078879159923
78,90.27512517039804
79,48.85347964941877
2,1, 1, 1, 0, 9, 0.00,60.00,Tuesday
7,6.750000000000001
8,3.0
9,3.0
49,0.0
53,12.765395734431639
77,12.217327474176654
78,439.83449064387025
79,425.2161825947933
2,1, 1, 1, 0,10, 0.00,60.00,Tuesday
7,8.487499999999999
8,2.375
9,2.375
49,0.0
53,14.005977425581328
77,13.719934609838571
78,370.3662713513046
79,383.309126107599
2,1, 1, 1, 0,11, 0.00,60.00,Tuesday
7,9.2125
8,0.75
9,0.75
49,0.0
53,14.6733791668486
77,14.696085591159331
78,156.99337745136324
79,186.95148860315885
2,1, 1, 1, 0,12, 0.00,60.00,Tuesday
7,9.775
8,0.0
9,0.0
49,0.0
53,14.955227015828353
77,15.035186472183083
78,71.3936711933429
79,68.56659405426443
2,1, 1, 1, 0,13, 0.00,60.00,Tuesday
7,10.375
8,0.0
9,0.0
49,0.0
53,15.294508606697518
77,15.328729780447965
78,96.8568028565638
79,91.93932629804158
2,1, 1, 1, 0,14, 0.00,60.00,Tuesday
7,10.9125
8,0.0
9,0.0
49,0.0
53,15.906912887796542
77,15.837468626011383
78,183.89324560300034
79,172.92110005177307
2,1, 1, 1, 0,15, 0.00,60.00,Tuesday
7,12.85
8,0.0
9,0.0
49,0.0
53,16.44703114602563
77,16.498099056052332
78,132.37073142460096
79,153.51494388392265
2,1, 1, 1, 0,16, 0.00,60.00,Tuesday
7,13.9
8,0.0
9,0.0
49,0.0
53,15.970637051556867
77,16.421362866223475
78,-203.9847500976318
79,-154.38527121383555
2,1, 1, 1, 0,17, 0.00,60.00,Tuesday
7,12.15
8,0.0
9,0.0
49,0.0
53,14.740941986837909
77,15.338889525678313
78,-393.29000470272115
79,-411.1098977482403
2,1, 1, 1, 0,18, 0.00,60.00,Tuesday
7,11.1
8,0.0
9,0.0
49,0.0
53,14.206234893347764
77,14.40266709578994
78,-135.33455675197678
79,-158.42107944656308
2,1, 1, 1, 0,19, 0.00,60.00,Tuesday
7,10.7875
8,0.0
9,0.0
49,0.0
53,13.931920907849868
77,14.070319895718283
78,-69.23253242496105
79,-71.86487442756044
2,1, 1, 1, 0,20, 0.00,60.00,Tuesday
7,10.6
8,0.0
9,0.0
49,0.0
53,13.773220072518583
77,13.876299308982507
78,-38.19571301409675
79,-42.1911674826424
2,1, 1, 1, 0,21, 0.00,60.00,Tuesday
7,9.5375
8,0.0
9,0.0
49,0.0
53,13.553963234003518
77,13.700453487216906
78,-68.99171722351807
79,-62.23188794656535
2,1, 1, 1, 0,22, 0.00,60.00,Tuesday
7,9.2125
8,0.0
9,0.0
49,0.0
53,13.34978855795908
77,13.468131943693278
78,-47.78671127247861
79,-53.915522220132395
2,1, 1, 1, 0,23, 0.00,60.00,Tuesday
7,8.4
8,0.0
9,0.0
49,0.0
53,13.099435795759426
77,13.261743299663063
78,-78.7280094236373
79,-71.1787579122916
2,1, 1, 1, 0,24, 0.00,60.00,Tuesday
7,7.1125
8,0.0
9,0.0
49,0.0
53,12.822003111682594
77,12.97474207267573
78,-70.62848105414969
79,-74.49862163962189
3,1, 1, 1, 0,Tuesday
54,13.898575347981053,10.675248410569251, 8,15,18.582046335741527,15,30
55,20.366099096371325,2.9055158741022393, 6,60,56.4113245146589,15,30
56,1.222969049299657,0.5782031265135459,17,15,1.7166506124987613,11,15
57,5.003262481991491,1.6420694041486712, 8,45,7.708272886233488, 5,60
58,13.509822353038182,10.639038989514287, 8,15,16.56814801797894,15,45
59,13.348824016985793,2.9034597886340943, 6,60,44.958872931047885,10,30
60,1.054785070390828,0.22134577804365776,13,45,1.6860811758729686, 9,45
61,4.726047198817329,1.697627083522392, 8,15,7.51390111241934,17,30
62,13.267197687991503,10.674972590696687, 8,15,16.556550890328673,15,45
63,9.070162523032726,2.955811370370904, 6,60,18.71774344852187,15,45
64,0.8882418173195467,0.1792215308605345,13,45,1.1719198230614567,17,30
65,4.415934373094904,0.8270614603923889, 9,30,7.879592356269915,17,30
66,13.42243596496654,10.639329084796953, 8,15,18.25623878390435,15,60
67,11.922643995668901,2.903845231078129, 6,60,46.24422430053378,15,60
68,1.0041655505736495,0.327581950947965,11,30,1.5665215860233723,15,45
69,4.5815990986465405,0.8325894993575419, 9,30,7.821977220139584,16,60
70,13.522544015511535,11.998383502805426, 8,60,14.927364938866551,16,60
71,13.522558043550136,11.998383502805426, 9,15,14.927364938866551,17,15
72,1.1382864463300013,0.41006908418379967,17,60,1.4113361010196945, 7,30
73,13.48301605568941,10.83644481008439, 8,15,16.819048423403594,15,30
74,10.705884153789365,-2.938952703230332, 8,30,34.880963538692484,14,45
75,0.9050471046654587,0.2245937198889394, 9,15,1.3180795542200032,17,30
76,5.215121355719167,1.1575577181894723, 9,15,8.98803342102331,17,30
10,0.0,0, 1,15,0, 1,15
11,3.,3, 1,15,3, 1,15
2,2, 1, 2, 0, 1, 0.00,60.00,Wednesday
7,8.075000000000001
8,0.0
9,0.0
49,0.0
53,12.707693096999769
77,12.799538238374693
78,-21.075247449388364
79,-28.82164898304549
2,2, 1, 2, 0, 2, 0.00,60.00,Wednesday
7,7.15
8,1.25
9,0.625
49,0.0
53,12.386996629548236
77,12.600563913605752
78,-117.46382300139041
79,-97.28588628678062
2,2, 1, 2, 0, 3, 0.00,60.00,Wednesday
7,5.7875
8,1.375
9,1.0
49,0.0
53,11.98241626776947
77,12.168473233732158
78,-94.90193221981826
79,-105.85336679314906
2,2, 1, 2, 0, 4, 0.00,60.00,Wednesday
7,4.5375
8,2.25
9,2.25
49,0.0
53,11.640880911329122
77,11.839328953317132
78,-96.95843251391419
79,-93.93048490321617
2,2, 1, 2, 0, 5, 0.00,60.00,Wednesday
7,4.9624999999999995
8,1.125
9,1.125
49,0.0
53,11.453143919820278
77,11.578977941114513
78,-34.34394158118076
79,-46.17468669032941
2,2, 1, 2, 0, 6, 0.00,60.00,Wednesday
7,6.6
8,0.0
9,0.0
49,0.0
53,11.462171572559404
77,11.53590197057673
78,1.8642560799121668
79,-0.08331230799848122
2,2, 1, 2, 0, 7, 0.00,60.00,Wednesday
7,7.575
8,0.0
9,0.0
49,0.0
53,11.457224149354904
77,11.531885008027885
78,-9.478758699302968
79,-6.602407743306058
2,2, 1, 2, 0, 8, 0.00,60.00,Wednesday
7,7.425
8,0.0
9,0.0
49,0.0
53,11.532812752899712
77,11.518492716569167
78,27.06828053336635
79,14.540571461738772
2,2, 1, 2, 0, 9, 0.00,60.00,Wednesday
7,9.325000000000001
8,0.0
9,0.0
49,0.0
53,12.21804127253711
77,11.912537054315466
78,190.09665526156192
79,170.6906040728794
2,2, 1, 2, 0,10, 0.00,60.00,Wednesday
7,11.287499999999998
8,0.0
9,0.0
49,0.0
53,12.999481338855682
77,12.74380847898413
78,239.6919887963626
79,244.06715421263843
2,2, 1, 2, 0,11, 0.00,60.00,Wednesday
7,13.075
8,0.625
9,0.0
49,0.0
53,13.768347139365158
77,13.556132269142433
78,237.95258294122556
79,226.95356846506553
2,2, 1, 2, 0,12, 0.00,60.00,Wednesday
7,13.9
8,1.625
9,0.625
49,0.0
53,14.491686092279757
77,14.4089347721452
78,188.05229961762024
79,209.46191943490237
2,2, 1, 2, 0,13, 0.00,60.00,Wednesday
7,13.9
8,2.0
9,1.0
49,0.0
53,15.317552205316026
77,15.157726433726353
78,259.3670548072886
79,240.39455699782184
2,2, 1, 2, 0,14, 0.00,60.00,Wednesday
7,13.9
8,2.0
9,1.0
49,0.0
53,15.615991432848539
77,15.737132039127667
78,29.658691006924844
79,63.456649822693066
2,2, 1, 2, 0,15, 0.00,60.00,Wednesday
7,12.837499999999999
8,2.0
9,1.0
49,0.0
53,15.607530021563404
77,15.782894602286873
78,3.367322933990277
79,6.6741858908799845
2,2, 1, 2, 0,16, 0.00,60.00,Wednesday
7,12.575
8,1.375
9,1.0
49,0.0
53,15.25081696496073
77,15.59240755437704
78,-139.622310766595
79,-110.95498627006977
2,2, 1, 2, 0,17, 0.00,60.00,Wednesday
7,11.7375
8,1.0
9,0.375
49,0.0
53,14.25087610928454
77,14.803883506378522
78,-358.1463610791257
79,-319.61197115645393
2,2, 1, 2, 0,18, 0.00,60.00,Wednesday
7,10.7875
8,2.25
9,1.25
49,0.0
53,13.737368746835628
77,13.973355012500393
78,-163.8229132973986
79,-185.42648940083134
2,2, 1, 2, 0,19, 0.00,60.00,Wednesday
7,11.287499999999998
8,1.125
9,0.75
49,0.0
53,13.428000702976568
77,13.55950548524561
78,-67.20336800991592
79,-78.27372216612963
2,2, 1, 2, 0,20, 0.00,60.00,Wednesday
7,11.7
8,0.0
9,0.0
49,0.0
53,13.339306157759559
77,13.413797553359583
78,-17.872330538479456
79,-22.68367468413653
2,2, 1, 2, 0,21, 0.00,60.00,Wednesday
7,10.6375
8,0.0
9,0.0
49,0.0
53,13.185006478415632
77,13.310018891963933
78,-53.91094010200527
79,-45.22683150537094
2,2, 1, 2, 0,22, 0.00,60.00,Wednesday
7,9.3125
8,0.0
9,0.0
49,0.0
53,12.856576756202456
77,13.03303288009127
78,-95.65689459619232
79,-91.6444046822976
2,2, 1, 2, 0,23, 0.00,60.00,Wednesday
7,9.2125
8,0.0
9,0.0
49,0.0
53,12.60078574372324
77,12.734734780444771
78,-57.730318409871415
79,-65.5881074536093
2,2, 1, 2, 0,24, 0.00,60.00,Wednesday
7,9.0875
8,0.0
9,0.0
49,0.0
53,12.395970437693737
77,12.536982307701736
78,-59.62250620966634
79,-57.01114028207051
3,2, 1, 2, 0,Wednesday
54,13.416773443189435,10.966225721800036, 5,45,17.83844851807549,13,60
55,17.89485859702436,1.4851316812064028, 4,60,58.697644226031656,13,45
56,1.1641439702727505,0.27489859359094865, 8,60,1.7668378895712007,13,45
57,6.016416891728659,1.6088159661503936, 2,60,14.152293322352872, 9,60
58,13.063720030175425,10.926578067447238, 5,30,15.933530172462774,14,15
59,11.676499885776726,1.4824896049643999, 4,60,29.82266151648877,10,30
60,1.039756628151998,0.1864859666099263,15,30,1.4074853495822688,10,45
61,5.764255051497991,1.6676319825044559, 2,60,14.133066788745763, 9,60
62,12.941249887339998,10.95629180385101, 5,30,15.906643107374807,14,15
63,9.460665908827544,1.4851316851816219, 4,60,21.28265754061698,13,60
64,0.9400923496255836,0.34020660215829024,15,30,1.182320106255945, 5,15
65,5.4241520942860255,1.6671564153631024, 2,60,11.74801473944339, 9,60
66,13.072986658654365,10.914460213073147, 5,30,16.9424481730558,15,30
67,11.802556932900876,1.4824896008153863, 4,60,36.84046002824548,15,60
68,1.0263595792140958,0.4664599562124771, 9,45,1.3742004400020065,15,45
69,5.573551387839735,1.6092851364501015, 2,60,11.748843040988111, 9,60
70,13.227225225271233,11.978765077099942, 8,60,14.421965741052585,16,60
71,13.23201422640802,11.978765077099942, 9,15,14.421965741052585,17,15
72,1.1140022776197533,0.32625202687952576,18,15,1.501829303922946, 5,30
73,13.083620973779945,11.176775673187553, 5,30,16.110204635629835,13,60
74,9.140148811900875,-4.777237851304625, 4,60,39.33351913500777,13,45
75,0.9054919299636973,0.18793487033283404,15,60,1.3129902753359544,17,45
76,6.615722551610268,1.4571970887384944,18,60,16.768687333939432, 9,45
10,0.0,0, 1,15,0, 1,15
11,4.,4, 1,15,4, 1,15
2,3, 1, 3, 0, 1, 0.00,60.00,Thursday
7,9.2125
8,0.0
9,0.0
49,0.0
53,12.342378093449202
77,12.405645259242698
78,-2.55070925901134
79,-12.548640773643019
2,3, 1, 3, 0, 2, 0.00,60.00,Thursday
7,9.775
8,0.0
9,0.0
49,0.0
53,12.387903571663557
77,12.429691354966469
78,6.252610542002238
79,7.795399946147632
2,3, 1, 3, 0, 3, 0.00,60.00,Thursday
7,11.375
8,0.0
9,0.0
49,0.0
53,12.388675922431963
77,12.437231782849018
78,-5.3947151612407955
79,-2.6878596658780904
2,3, 1, 3, 0, 4, 0.00,60.00,Thursday
7,13.2625
8,0.0
9,0.0
49,0.0
53,12.579208246810206
77,12.49428314648473
78,45.4809190090457
79,36.33974233859381
2,3, 1, 3, 0, 5, 0.00,60.00,Thursday
7,13.212500000000002
8,0.0
9,0.0
49,0.0
53,12.640388740138217
77,12.622046113253633
78,13.152157180010985
79,20.846429097306057
2,3, 1, 3, 0, 6, 0.00,60.00,Thursday
7,12.425
8,0.0
9,0.0
49,0.0
53,12.556977483261317
77,12.604814810389387
78,-17.614226324303807
79,-15.52472639432748
2,3, 1, 3, 0, 7, 0.00,60.00,Thursday
7,11.5125
8,0.0
9,0.0
49,0.0
53,12.432234071621181
77,12.510259706795518
78,-34.643887387866414
79,-32.4839675088365
2,3, 1, 3, 0, 8, 0.00,60.00,Thursday
7,11.1
8,0.0
9,0.0
49,0.0
53,12.458546756556995
77,12.429554633901944
78,14.339761985613023
79,0.16795466652181723
2,3, 1, 3, 0, 9, 0.00,60.00,Thursday
7,11.474999999999998
8,0.0
9,0.0
49,0.0
53,13.029576194006786
77,12.757942887602429
78,176.30367539773584
79,153.8807764179294
2,3, 1, 3, 0,10, 0.00,60.00,Thursday
7,12.7
8,0.0
9,0.0
49,0.0
53,13.925190799552546
77,13.633517191491885
78,285.58677058373047
79,279.0024112596894
2,3, 1, 3, 0,11, 0.00,60.00,Thursday
7,12.6125
8,0.0
9,0.0
49,0.0
53,14.486143291578259
77,14.460463701437995
78,129.88592988471882
79,161.95494450437707
2,3, 1, 3, 0,12, 0.00,60.00,Thursday
7,13.95
8,0.625
9,0.625
49,0.0
53,14.965935372407191
77,14.852829413626434
78,156.43016745844253
79,130.08190442965608
2,3, 1, 3, 0,13, 0.00,60.00,Thursday
7,15.375000000000002
8,2.25
9,1.625
49,0.0
53,15.69568601839764
77,15.58303639319633
78,202.7184390215084
79,211.58876736535618
2,3, 1, 3, 0,14, 0.00,60.00,Thursday
7,15.912500000000001
8,2.375
9,1.375
49,0.0
53,16.3838854232366
77,16.30917401336282
78,184.9595839462571
79,190.36514489615803
2,3, 1, 3, 0,15, 0.00,60.00,Thursday
7,16.1
8,1.375
9,1.0
49,0.0
53,16.41050624828764
77,16.61402993774786
78,-29.50886925543914
79,-1.5545013720594767
2,3, 1, 3, 0,16, 0.00,60.00,Thursday
7,14.725
8,1.625
9,1.0
49,0.0
53,15.854403102151625
77,16.24071006823464
78,-183.43036270119603
79,-159.07599212661268
2,3, 1, 3, 0,17, 0.00,60.00,Thursday
7,13.9
8,2.0
9,1.625
49,0.0
53,14.852000406992978
77,15.396211565563187
78,-357.2379864430257
79,-319.72656053639423
2,3, 1, 3, 0,18, 0.00,60.00,Thursday
7,13.212500000000002
8,1.375
9,1.375
49,0.0
53,14.490446589125943
77,14.647108237011768
78,-106.15634164356352
79,-139.9532054226923
2,3, 1, 3, 0,19, 0.00,60.00,Thursday
7,12.425
8,1.0
9,1.0
49,0.0