Program Version,EnergyPlus, Version 9.6.0-f420c06a69, YMD=2022.05.12 06:24
1,5,Environment Title[],Latitude[deg],Longitude[deg],Time Zone[],Elevation[m]
2,8,Day of Simulation[],Month[],Day of Month[],DST Indicator[1=yes 0=no],Hour[],StartMinute[],EndMinute[],DayType
3,5,Cumulative Day of Simulation[],Month[],Day of Month[],DST Indicator[1=yes 0=no],DayType  ! When Daily Report Variables Requested
4,2,Cumulative Days of Simulation[],Month[]  ! When Monthly Report Variables Requested
5,1,Cumulative Days of Simulation[] ! When Run Period Report Variables Requested
6,1,Calendar Year of Simulation[] ! When Annual Report Variables Requested
7,1,Environment,Site Outdoor Air Drybulb Temperature [C] !Hourly
8,1,Environment,Site Total Sky Cover [] !Hourly
9,1,Environment,Site Opaque Sky Cover [] !Hourly
10,7,Environment,Site Daylight Saving Time Status [] !Daily [Value,Min,Hour,Minute,Max,Hour,Minute]
11,7,Environment,Site Day Type Index [] !Daily [Value,Min,Hour,Minute,Max,Hour,Minute]
49,1,ZONE ONE,Zone Total Internal Latent Gain Energy [J] !Hourly
50,9,TEST 352 MINUS,Other Equipment Total Heating Energy [J] !Monthly [Value,Min,Day,Hour,Minute,Max,Day,Hour,Minute]
51,9,TEST 352A,Other Equipment Total Heating Energy [J] !Monthly [Value,Min,Day,Hour,Minute,Max,Day,Hour,Minute]
52,9,ZONE ONE,Zone Other Equipment Total Heating Energy [J] !Monthly [Value,Min,Day,Hour,Minute,Max,Day,Hour,Minute]
53,1,ZONE ONE,Zone Mean Radiant Temperature [C] !Hourly
54,7,ZN001:WALL001,Surface Inside Face Temperature [C] !Daily [Value,Min,Hour,Minute,Max,Hour,Minute]
55,7,ZN001:WALL001,Surface Outside Face Temperature [C] !Daily [Value,Min,Hour,Minute,Max,Hour,Minute]
56,7,ZN001:WALL001,Surface Inside Face Convection Heat Transfer Coefficient [W/m2-K] !Daily [Value,Min,Hour,Minute,Max,Hour,Minute]
57,7,ZN001:WALL001,Surface Outside Face Convection Heat Transfer Coefficient [W/m2-K] !Daily [Value,Min,Hour,Minute,Max,Hour,Minute]
58,7,ZN001:WALL002,Surface Inside Face Temperature [C] !Daily [Value,Min,Hour,Minute,Max,Hour,Minute]
59,7,ZN001:WALL002,Surface Outside Face Temperature [C] !Daily [Value,Min,Hour,Minute,Max,Hour,Minute]
60,7,ZN001:WALL002,Surface Inside Face Convection Heat Transfer Coefficient [W/m2-K] !Daily [Value,Min,Hour,Minute,Max,Hour,Minute]
61,7,ZN001:WALL002,Surface Outside Face Convection Heat Transfer Coefficient [W/m2-K] !Daily [Value,Min,Hour,Minute,Max,Hour,Minute]
62,7,ZN001:WALL003,Surface Inside Face Temperature [C] !Daily [Value,Min,Hour,Minute,Max,Hour,Minute]
63,7,ZN001:WALL003,Surface Outside Face Temperature [C] !Daily [Value,Min,Hour,Minute,Max,Hour,Minute]
64,7,ZN001:WALL003,Surface Inside Face Convection Heat Transfer Coefficient [W/m2-K] !Daily [Value,Min,Hour,Minute,Max,Hour,Minute]
65,7,ZN001:WALL003,Surface Outside Face Convection Heat Transfer Coefficient [W/m2-K] !Daily [Value,Min,Hour,Minute,Max,Hour,Minute]
66,7,ZN001:WALL004,Surface Inside Face Temperature [C] !Daily [Value,Min,Hour,Minute,Max,Hour,Minute]
67,7,ZN001:WALL004,Surface Outside Face Temperature [C] !Daily [Value,Min,Hour,Minute,Max,Hour,Minute]
68,7,ZN001:WALL004,Surface Inside Face Convection Heat Transfer Coefficient [W/m2-K] !Daily [Value,Min,Hour,Minute,Max,Hour,Minute]
69,7,ZN001:WALL004,Surface Outside Face Convection Heat Transfer Coefficient [W/m2-K] !Daily [Value,Min,Hour,Minute,Max,Hour,Minute]
70,7,ZN001:FLR001,Surface Inside Face Temperature [C] !Daily [Value,Min,Hour,Minute,Max,Hour,Minute]
71,7,ZN001:FLR001,Surface Outside Face Temperature [C] !Daily [Value,Min,Hour,Minute,Max,Hour,Minute]
72,7,ZN001:FLR001,Surface Inside Face Convection Heat Transfer Coefficient [W/m2-K] !Daily [Value,Min,Hour,Minute,Max,Hour,Minute]
73,7,ZN001:ROOF001,Surface Inside Face Temperature [C] !Daily [Value,Min,Hour,Minute,Max,Hour,Minute]
74,7,ZN001:ROOF001,Surface Outside Face Temperature [C] !Daily [Value,Min,Hour,Minute,Max,Hour,Minute]
75,7,ZN001:ROOF001,Surface Inside Face Convection Heat Transfer Coefficient [W/m2-K] !Daily [Value,Min,Hour,Minute,Max,Hour,Minute]
76,7,ZN001:ROOF001,Surface Outside Face Convection Heat Transfer Coefficient [W/m2-K] !Daily [Value,Min,Hour,Minute,Max,Hour,Minute]
77,1,ZONE ONE,Zone Mean Air Temperature [C] !Hourly
78,1,ZONE ONE,Zone Air Heat Balance Surface Convection Rate [W] !Hourly
79,1,ZONE ONE,Zone Air Heat Balance Air Energy Storage Rate [W] !Hourly
End of Data Dictionary
1,DENVER CENTENNIAL  GOLDEN   N ANN CLG 1% CONDNS DB=>MWB,  37.62,-122.40,  -8.00,   2.00
2,1, 7,21, 0, 1, 0.00,60.00,SummerDesignDay
7,18.966
8,1.25
9,1.25
49,0.0
53,28.54984681077363
77,28.715008782729225
78,-106.06939868882533
79,-105.99394752508753
2,1, 7,21, 0, 2, 0.00,60.00,SummerDesignDay
7,18.244
8,3.25
9,3.25
49,0.0
53,28.247605343500172
77,28.41209968287034
78,-103.42851244087494
79,-104.01089997778985
2,1, 7,21, 0, 3, 0.00,60.00,SummerDesignDay
7,17.731
8,3.375
9,3.375
49,0.0
53,27.95449783893074
77,28.11811933246366
78,-100.96478385938288
79,-101.2656607833998
2,1, 7,21, 0, 4, 0.00,60.00,SummerDesignDay
7,17.275000000000002
8,1.125
9,1.125
49,0.0
53,27.663142475799024
77,27.827912524911774
78,-101.23488261249997
79,-101.12946572092233
2,1, 7,21, 0, 5, 0.00,60.00,SummerDesignDay
7,16.913999999999998
8,1.875
9,1.875
49,0.0
53,27.375687754238434
77,27.53911835428481
78,-99.28876937093533
79,-99.71590971995525
2,1, 7,21, 0, 6, 0.00,60.00,SummerDesignDay
7,16.990000000000002
8,3.0
9,3.0
49,0.0
53,27.316338479150282
77,27.34766864155358
78,10.116162644029536
79,-17.555164471459914
2,1, 7,21, 0, 7, 0.00,60.00,SummerDesignDay
7,17.769
8,3.0
9,3.0
49,0.0
53,27.777054926627095
77,27.63166096688234
78,142.5591629604141
79,140.9076933423723
2,1, 7,21, 0, 8, 0.00,60.00,SummerDesignDay
7,19.783
8,3.0
9,3.0
49,0.0
53,28.20391716008954
77,28.045906537095608
78,151.38449911469064
79,147.5492406144561
2,1, 7,21, 0, 9, 0.00,60.00,SummerDesignDay
7,22.557
8,3.0
9,3.0
49,0.0
53,28.685150184147524
77,28.521748027265588
78,179.41722360919934
79,176.17112663572237
2,1, 7,21, 0,10, 0.00,60.00,SummerDesignDay
7,25.255000000000003
8,2.375
9,2.375
49,0.0
53,29.223145888478758
77,29.04954646104495
78,179.50729935203884
79,181.56476154466986
2,1, 7,21, 0,11, 0.00,60.00,SummerDesignDay
7,27.649
8,0.75
9,0.75
49,0.0
53,29.69041817407102
77,29.537682373605552
78,156.6386936125885
79,160.0110973140094
2,1, 7,21, 0,12, 0.00,60.00,SummerDesignDay
7,29.454
8,0.0
9,0.0
49,0.0
53,30.05081467324277
77,29.9357416680002
78,116.40347725244246
79,122.04007748141703
2,1, 7,21, 0,13, 0.00,60.00,SummerDesignDay
7,30.784
8,0.0
9,0.0
49,0.0
53,30.394818177525337
77,30.259231900487634
78,127.88340672716146
79,119.97958727998227
2,1, 7,21, 0,14, 0.00,60.00,SummerDesignDay
7,31.715
8,0.0
9,0.0
49,0.0
53,30.834465632796327
77,30.69426398364455
78,156.76235849906405
79,158.14776284184933
2,1, 7,21, 0,15, 0.00,60.00,SummerDesignDay
7,32.0
8,0.0
9,0.0
49,0.0
53,31.174335199676516
77,31.103975328690105
78,119.25040663509132
79,125.62773857747868
2,1, 7,21, 0,16, 0.00,60.00,SummerDesignDay
7,31.43
8,0.0
9,0.0
49,0.0
53,31.33711234121579
77,31.366813413226296
78,58.61251980217523
79,67.06023980113545
2,1, 7,21, 0,17, 0.00,60.00,SummerDesignDay
7,30.328
8,0.0
9,0.0
49,0.0
53,31.33334762249668
77,31.46050090347513
78,13.101937667610382
79,16.609963376611805
2,1, 7,21, 0,18, 0.00,60.00,SummerDesignDay
7,28.922
8,0.0
9,0.0
49,0.0
53,31.209097094467538
77,31.42580554794878
78,-52.33580550673703
79,-39.15989135757557
2,1, 7,21, 0,19, 0.00,60.00,SummerDesignDay
7,26.927
8,0.0
9,0.0
49,0.0
53,30.700367275630256
77,31.050298669875932
78,-222.76639819497947
79,-196.51577888507035
2,1, 7,21, 0,20, 0.00,60.00,SummerDesignDay
7,25.027
8,0.0
9,0.0
49,0.0
53,30.071257592431223
77,30.31322010214486
78,-212.94056429098413
79,-236.97055993454424
2,1, 7,21, 0,21, 0.00,60.00,SummerDesignDay
7,23.544999999999998
8,0.0
9,0.0
49,0.0
53,29.744665409472628
77,29.896574947232605
78,-106.02919961623037
79,-109.139585991599
2,1, 7,21, 0,22, 0.00,60.00,SummerDesignDay
7,22.177
8,0.0
9,0.0
49,0.0
53,29.453326789295453
77,29.605574848232486
78,-100.59864709649585
79,-100.1007755272971
2,1, 7,21, 0,23, 0.00,60.00,SummerDesignDay
7,20.999000000000002
8,0.0
9,0.0
49,0.0
53,29.15935593999725
77,29.314350101572124
78,-100.45803454167381
79,-100.6803291070523
2,1, 7,21, 0,24, 0.00,60.00,SummerDesignDay
7,19.935000000000002
8,0.0
9,0.0
49,0.0
53,28.85910538470147
77,29.020228765439885
78,-103.99401137809814
79,-103.37980654214515
3,1, 7,21, 0,SummerDesignDay
54,29.264521661478568,26.537699647538165, 6,15,31.889480280006993,15,45
55,27.574863770561375,15.378346114964927, 5,60,47.482293482848554,13,60
56,1.1020228104545342,0.4047578686177202, 9,45,1.3663083907550302,13,60
57,9.78576514330831,9.64864539782147,16,30,10.166888757142065, 7,15
58,29.429458211230877,26.547741782946332, 6,15,31.494110827095614,16,30
59,30.172730069066038,15.537093089146307, 5,60,53.400926714465776, 9,45
60,1.1184652879758292,0.2181398523250951,17,30,1.5384130154490088, 9,45
61,11.646234585602022,11.426219036304694, 7,15,11.99448724212295,19,60
62,29.148790476783088,26.547656551675285, 6,15,31.530223220784073,17,60
63,25.640033131263095,15.537093089146307, 5,60,35.67164190921775,14,60
64,0.9009487927304437,0.10534887836384788,10,15,1.2311547391010724, 6,15
65,11.655282434552694,11.475313771075523,19,15,12.059145813560407, 6,45
66,29.411976390711313,26.547579521424005, 6,15,33.109491718454954,17,15
67,30.030658878094957,15.537093089146307, 5,60,61.11145871296917,17,15
68,1.1193499493039976,0.10534920599880629,10,15,1.5578501163397724,17,15
69,11.652440475874485,11.42622191951486,19,45,12.08147859491474, 7,15
70,29.370239041007626,28.01575770018551, 7,60,30.724771856740457,19,15
71,29.37022178484523,28.01575770018551, 8,15,30.724771856740457,19,30
72,0.9940710819720612,0.2603893311511976, 8,60,1.4285684053830068, 6,15
73,29.45452015943195,27.01888721093716, 6,15,31.702183283995964,16,15
74,32.359700913158854,12.86602004964378, 5,60,61.858111225457925,13,45
75,0.8092501374311217,0.11245533089895772,18,15,1.1922298395816382,20,15
76,13.388998242108391,13.087087002492321,17,45,14.020375135961347,19,45
10,0.0,0, 1,15,0, 1,15
11,9.,9, 1,15,9, 1,15
4,1, 7
50,-30412800.0,-316800.0,21, 1,15,-316800.0,21, 1,15
51,30412800.0,316800.0,21, 1,15,316800.0,21, 1,15
52,0.0,0.0,21, 1,15,0.0,21, 1,15
1,DENVER CENTENNIAL  GOLDEN   N ANN HTG 99% CONDNS DB,  37.62,-122.40,  -8.00,   2.00
2,1,12,21, 0, 1, 0.00,60.00,WinterDesignDay
7,-15.5
8,1.25
9,1.25
49,0.0
53,-18.142494181404622
77,-18.14524772727832
78,-0.028698098632204072
79,-0.02875954607684856
2,1,12,21, 0, 2, 0.00,60.00,WinterDesignDay
7,-15.5
8,3.25
9,3.25
49,0.0
53,-18.14256526321043
77,-18.14531707155053
78,-0.02821140675558853
79,-0.02827181333336627
2,1,12,21, 0, 3, 0.00,60.00,WinterDesignDay
7,-15.5
8,3.375
9,3.375
49,0.0
53,-18.142635138579962
77,-18.145385239780794
78,-0.027732958882557668
79,-0.027792342172067865
2,1,12,21, 0, 4, 0.00,60.00,WinterDesignDay
7,-15.5
8,1.125
9,1.125
49,0.0
53,-18.142703827983276
77,-18.145452251890987
78,-0.02726261575018718
79,-0.02732099304264519
2,1,12,21, 0, 5, 0.00,60.00,WinterDesignDay
7,-15.5
8,1.875
9,1.875
49,0.0
53,-18.142771351543292
77,-18.145518127466424
78,-0.026800240411826604
79,-0.026857628712015406
2,1,12,21, 0, 6, 0.00,60.00,WinterDesignDay
7,-15.5
8,3.0
9,3.0
49,0.0
53,-18.142837729041744
77,-18.145582885761446
78,-0.026345698238287252
79,-0.026402114253114613
2,1,12,21, 0, 7, 0.00,60.00,WinterDesignDay
7,-15.5
8,3.0
9,3.0
49,0.0
53,-18.142902979924898
77,-18.14564654570501
78,-0.02589885685193405
79,-0.025954317019360403
2,1,12,21, 0, 8, 0.00,60.00,WinterDesignDay
7,-15.5
8,3.0
9,3.0
49,0.0
53,-18.142967123309283
77,-18.145709125906144
78,-0.025459586108745214
79,-0.0255141065740103
2,1,12,21, 0, 9, 0.00,60.00,WinterDesignDay
7,-15.5
8,3.0
9,3.0
49,0.0
53,-18.14303017798723
77,-18.145770644659365
78,-0.025027758035384817
79,-0.025081354698381804
2,1,12,21, 0,10, 0.00,60.00,WinterDesignDay
7,-15.5
8,2.375
9,2.375
49,0.0
53,-18.143092162432414
77,-18.145831119949897
78,-0.024603246823724945
79,-0.024655935291605296
2,1,12,21, 0,11, 0.00,60.00,WinterDesignDay
7,-15.5
8,0.75
9,0.75
49,0.0
53,-18.1431530948052
77,-18.145890569458928
78,-0.02418592877629866
79,-0.024237724414263986
2,1,12,21, 0,12, 0.00,60.00,WinterDesignDay
7,-15.5
8,0.0
9,0.0
49,0.0
53,-18.143212992957977
77,-18.14594901056871
78,-0.023775682278884158
79,-0.023826600183546456
2,1,12,21, 0,13, 0.00,60.00,WinterDesignDay
7,-15.5
8,0.0
9,0.0
49,0.0
53,-18.14327187444037
77,-18.146006460367545
78,-0.023372387757915725
79,-0.023422442759843176
2,1,12,21, 0,14, 0.00,60.00,WinterDesignDay
7,-15.5
8,0.0
9,0.0
49,0.0
53,-18.143329756504343
77,-18.14606293565479
78,-0.022975927654876216
79,-0.023025134358726915
2,1,12,21, 0,15, 0.00,60.00,WinterDesignDay
7,-15.5
8,0.0
9,0.0
49,0.0
53,-18.143386656109307
77,-18.1461184529457
78,-0.022586186389045082
79,-0.022634559140164632
2,1,12,21, 0,16, 0.00,60.00,WinterDesignDay
7,-15.5
8,0.0
9,0.0
49,0.0
53,-18.143442589927012
77,-18.146173028476206
78,-0.022203050324712592
79,-0.02225060322856578
2,1,12,21, 0,17, 0.00,60.00,WinterDesignDay
7,-15.5
8,0.0
9,0.0
49,0.0
53,-18.14349757434644
77,-18.14622667820759
78,-0.021826407745794807
79,-0.021873154663886007
2,1,12,21, 0,18, 0.00,60.00,WinterDesignDay
7,-15.5
8,0.0
9,0.0
49,0.0
53,-18.143551625478608
77,-18.146279417831188
78,-0.02145614880217961
79,-0.02150210338768746
2,1,12,21, 0,19, 0.00,60.00,WinterDesignDay
7,-15.5
8,0.0
9,0.0
49,0.0
53,-18.143604759161246
77,-18.14633126277284
78,-0.021092165501491955
79,-0.021137341147852345
2,1,12,21, 0,20, 0.00,60.00,WinterDesignDay
7,-15.5
8,0.0
9,0.0
49,0.0
53,-18.143656990963468
77,-18.146382228197414
78,-0.02073435168021609
79,-0.02077876156946992
2,1,12,21, 0,21, 0.00,60.00,WinterDesignDay
7,-15.5
8,0.0
9,0.0
49,0.0
53,-18.143708336190297
77,-18.14643232901321
78,-0.020382602951640294
79,-0.020426260039606747
2,1,12,21, 0,22, 0.00,60.00,WinterDesignDay
7,-15.5
8,0.0
9,0.0
49,0.0
53,-18.14375880988715
77,-18.146481579876244
78,-0.020036816693518755
79,-0.020079733714623103
2,1,12,21, 0,23, 0.00,60.00,WinterDesignDay
7,-15.5
8,0.0
9,0.0
49,0.0
53,-18.143808426844227
77,-18.146529995194562
78,-0.01969689200746494
79,-0.019739081494687654
2,1,12,21, 0,24, 0.00,60.00,WinterDesignDay
7,-15.5
8,0.0
9,0.0
49,0.0
53,-18.143857201600852
77,-18.14657758913238
78,-0.01936272969477626
79,-0.019404203962930494
3,1,12,21, 0,WinterDesignDay
54,-18.076978324049907,-18.07757579877152,24,60,-18.076295232381145, 1,15
55,-17.4643877109557,-17.46441430733806,24,60,-17.464357303433378, 1,15
56,0.5371154735386959,0.5369858784217495, 1,15,0.5372289125726424,24,60
57,7.151417837626728,7.151416974075158,24,60,7.151418824940884, 1,15
58,-18.076978324049907,-18.07757579877152,24,60,-18.076295232381145, 1,15
59,-17.4643877109557,-17.46441430733806,24,60,-17.464357303433378, 1,15
60,0.5371154735386959,0.5369858784217495, 1,15,0.5372289125726424,24,60
61,7.151417837626728,7.151416974075158,24,60,7.151418824940884, 1,15
62,-18.07223285505619,-18.07283039439238,24,60,-18.071549689635685, 1,15
63,-17.418353833060465,-17.418379833856626,24,60,-17.41832410646857, 1,15
64,0.5491611436435797,0.5490373567429805, 1,15,0.549269500576162,24,60
65,7.416386018435223,7.4163850058688325,24,60,7.416387176117963, 1,15
66,-18.07223285505619,-18.07283039439238,24,60,-18.071549689635685, 1,15
67,-17.418353833060465,-17.418379833856626,24,60,-17.41832410646857, 1,15
68,0.5491611436435793,0.5490373567429805, 1,15,0.549269500576162,24,60
69,7.416386018435223,7.4163850058688325,24,60,7.416387176117963, 1,15
70,-18.15012960351039,-18.150871555459258,24,60,-18.149281300565704, 1,15
71,-18.150112825680925,-18.150857960357875,24,60,-18.14926088383062, 1,15
72,0.12233305890662731,0.1211919595009221, 1,15,0.12331904394617062,24,60
73,-18.21864243897711,-18.219285720840478,24,60,-18.217906974068477, 1,15
74,-20.304798821865095,-20.30480840788113,24,60,-20.304787862152068, 1,15
75,0.6343696587762698,0.6343618635961283, 1,15,0.6343763362227033,24,60
76,8.618906778862382,8.618906527090749,24,60,8.618907066713822, 1,15
10,0.0,0, 1,15,0, 1,15
11,10.,10, 1,15,10, 1,15
4,1,12
50,-30412800.0,-316800.0,21, 1,15,-316800.0,21, 1,15
51,30412800.0,316800.0,21, 1,15,316800.0,21, 1,15
52,0.0,0.0,21, 1,15,0.0,21, 1,15
1,RUN PERIOD 1,  37.62,-122.40,  -8.00,   2.00
2,1, 1, 1, 0, 1, 0.00,60.00,Tuesday
7,7.0125
8,1.25
9,1.25
49,0.0
53,12.193714376045163
77,12.33914960928141
78,-88.4661638146815
79,-85.73125128971641
2,1, 1, 1, 0, 2, 0.00,60.00,Tuesday
7,7.2
8,3.25
9,3.25
49,0.0
53,12.074304644619055
77,12.159598349085522
78,-31.227840858438483
79,-42.10788957484003
2,1, 1, 1, 0, 3, 0.00,60.00,Tuesday
7,6.8875
8,3.375
9,3.375
49,0.0
53,11.950351323436754
77,12.062939257920073
78,-56.234879354849895
79,-48.61740167821033
2,1, 1, 1, 0, 4, 0.00,60.00,Tuesday
7,6.324999999999999
8,1.125
9,1.125
49,0.0
53,11.707926307783854
77,11.858122820115074
78,-94.96367530841843
79,-90.3612864572654
2,1, 1, 1, 0, 5, 0.00,60.00,Tuesday
7,5.0375
8,1.875
9,1.875
49,0.0
53,11.468102385983391
77,11.607186503524515
78,-83.79755547215939
79,-87.26462352140257
2,1, 1, 1, 0, 6, 0.00,60.00,Tuesday
7,4.4
8,3.0
9,3.0
49,0.0
53,11.248072246031148
77,11.387199892613008
78,-81.1087614673649
79,-81.06516516932535
2,1, 1, 1, 0, 7, 0.00,60.00,Tuesday
7,5.4624999999999995
8,3.0
9,3.0
49,0.0
53,11.052264333522757
77,11.182429660264427
78,-70.64462091744356
79,-72.19289125350794
2,1, 1, 1, 0, 8, 0.00,60.00,Tuesday
7,5.4125
8,3.0
9,3.0
49,0.0
53,11.236797092069192
77,11.119223866487669
78,110.6167002571458
79,58.91757380658024
2,1, 1, 1, 0, 9, 0.00,60.00,Tuesday
7,6.750000000000001
8,3.0
9,3.0
49,0.0
53,12.420668031453413
77,11.821192288795045
78,582.4830776507184
79,501.4151314801924
2,1, 1, 1, 0,10, 0.00,60.00,Tuesday
7,8.487499999999999
8,2.375
9,2.375
49,0.0
53,13.416024469120693
77,13.10660365938215
78,479.9178705476513
79,508.52037874961405
2,1, 1, 1, 0,11, 0.00,60.00,Tuesday
7,9.2125
8,0.75
9,0.75
49,0.0
53,13.935556942278609
77,13.982726130554743
78,170.1875121594988
79,207.84739190912308
2,1, 1, 1, 0,12, 0.00,60.00,Tuesday
7,9.775
8,0.0
9,0.0
49,0.0
53,14.094785956624413
77,14.210795529241055
78,47.503925694190436
79,46.98138962649723
2,1, 1, 1, 0,13, 0.00,60.00,Tuesday
7,10.375
8,0.0
9,0.0
49,0.0
53,14.3373035014817
77,14.372589435150411
78,93.54867998802399
79,81.30394479226929
2,1, 1, 1, 0,14, 0.00,60.00,Tuesday
7,10.9125
8,0.0
9,0.0
49,0.0
53,14.921535285807028
77,14.827679509057498
78,235.8700274891054
79,220.2438202110368
2,1, 1, 1, 0,15, 0.00,60.00,Tuesday
7,12.85
8,0.0
9,0.0
49,0.0
53,15.464421365108635
77,15.492812813574506
78,197.5017813600226
79,219.68529159189703
2,1, 1, 1, 0,16, 0.00,60.00,Tuesday
7,13.9
8,0.0
9,0.0
49,0.0
53,15.115102749248269
77,15.553790267465843
78,-200.48195271179412
79,-137.74954613120929
2,1, 1, 1, 0,17, 0.00,60.00,Tuesday
7,12.15
8,0.0
9,0.0
49,0.0
53,14.076203447389538
77,14.714422071389247
78,-496.3120061613377
79,-440.59792195644883
2,1, 1, 1, 0,18, 0.00,60.00,Tuesday
7,11.1
8,0.0
9,0.0
49,0.0
53,13.63548147758722
77,13.868306465778108
78,-202.15442057305648
79,-243.20275878997424
2,1, 1, 1, 0,19, 0.00,60.00,Tuesday
7,10.7875
8,0.0
9,0.0
49,0.0
53,13.38016499275518
77,13.510270959436314
78,-87.81212553970238
79,-92.88796564060331
2,1, 1, 1, 0,20, 0.00,60.00,Tuesday
7,10.6
8,0.0
9,0.0
49,0.0
53,13.24597221970006
77,13.33443382309916
78,-44.52401162925221
79,-49.50753134647074
2,1, 1, 1, 0,21, 0.00,60.00,Tuesday
7,9.5375
8,0.0
9,0.0
49,0.0
53,13.056668746853632
77,13.185807429034224
78,-77.95083904389767
79,-70.05000427023204
2,1, 1, 1, 0,22, 0.00,60.00,Tuesday
7,9.2125
8,0.0
9,0.0
49,0.0
53,12.8838045105721
77,12.986105674554086
78,-55.34850796603725
79,-62.44190131198561
2,1, 1, 1, 0,23, 0.00,60.00,Tuesday
7,8.4
8,0.0
9,0.0
49,0.0
53,12.664517080323474
77,12.80920614469801
78,-90.38621570265546
79,-81.47494124037766
2,1, 1, 1, 0,24, 0.00,60.00,Tuesday
7,7.1125
8,0.0
9,0.0
49,0.0
53,12.424441721193423
77,12.559335150119411
78,-82.5247893575546
79,-87.06976608367417
3,1, 1, 1, 0,Tuesday
54,13.470882264349404,10.420475660063666, 8,15,18.014952377800434,15,30
55,20.32419426519113,2.9413071383687384, 6,60,56.21878553884155,15,30
56,1.2755929813612645,0.8030344043607825,17,30,1.813894345291598,11,15
57,5.000880673308802,1.6513768685034937, 8,45,7.711509533495978, 5,60
58,13.014210080279078,10.420126292762731, 8,15,15.641173761963131,15,60
59,13.331599266646174,2.9408765741935263, 6,60,44.80283754346706,10,30
60,1.0786265432294961,0.1504084660432634, 8,45,1.745542449522092,10,15
61,4.7236351524992815,1.6850887928510425, 8,15,7.506506956747091,17,30
62,12.721614828005857,10.42012795907723, 8,15,15.641173761973082,15,60
63,9.069706117478395,2.9902311835269413, 6,60,18.648277054334642,15,45
64,0.9196074387603838,0.18069774224243054,12,60,1.2243328222247125,17,45
65,4.413058317506338,0.7854513320978067, 9,30,7.871399157936589,17,30
66,12.915774169680226,10.420448495010927, 8,15,17.511683174946615,15,60
67,11.912485011946279,2.9413071383687464, 6,60,46.07520266240649,15,60
68,1.0193462953926267,0.2102953369252261,11,30,1.6354729424819587,15,45
69,4.578827600430871,0.7854512672498798, 9,30,7.820041733941618,16,60
70,12.996730874458668,11.702258103063077, 8,45,14.171529713102244,17,15
71,12.996750589847728,11.702258103063077, 8,60,14.171529713102244,17,30
72,1.0605075443673704,0.11660936299860719,18,30,1.340041659844549, 7,30
73,12.967082750445455,10.676533728445024, 8,15,15.787485717740958,15,30
74,10.697157918021283,-2.9435082183761003, 8,30,34.86547356032305,14,45
75,0.8784654049581734,0.29561510234380783, 9,15,1.3676048970270043,17,45
76,5.214820980896984,1.157138571035837, 9,15,8.987499950416359,17,30
10,0.0,0, 1,15,0, 1,15
11,3.,3, 1,15,3, 1,15
2,2, 1, 2, 0, 1, 0.00,60.00,Wednesday
7,8.075000000000001
8,0.0
9,0.0
49,0.0
53,12.330753917150435
77,12.406035433481826
78,-24.560150460755374
79,-33.64857087886117
2,2, 1, 2, 0, 2, 0.00,60.00,Wednesday
7,7.15
8,1.25
9,0.625
49,0.0
53,12.040491674276831
77,12.235806630273373
78,-136.05061252019016
79,-112.0581769813999
2,2, 1, 2, 0, 3, 0.00,60.00,Wednesday
7,5.7875
8,1.375
9,1.0
49,0.0
53,11.684278869411617
77,11.852696070404424
78,-113.84085960118439
79,-126.74999426382443
2,2, 1, 2, 0, 4, 0.00,60.00,Wednesday
7,4.5375
8,2.25
9,2.25
49,0.0
53,11.382410880498547
77,11.560238316243723
78,-114.21351724472646
79,-110.69141713432329
2,2, 1, 2, 0, 5, 0.00,60.00,Wednesday
7,4.9624999999999995
8,1.125
9,1.125
49,0.0
53,11.22074433400495
77,11.327765021119312
78,-41.75489819147747
79,-55.766903249618984
2,2, 1, 2, 0, 6, 0.00,60.00,Wednesday
7,6.6
8,0.0
9,0.0
49,0.0
53,11.234373292638896
77,11.290315617914642
78,3.435442404979126
79,1.0032877377370226
2,2, 1, 2, 0, 7, 0.00,60.00,Wednesday
7,7.575
8,0.0
9,0.0
49,0.0
53,11.231598411830264
77,11.29099990534753
78,-9.475006933389356
79,-6.082587257224591
2,2, 1, 2, 0, 8, 0.00,60.00,Wednesday
7,7.425
8,0.0
9,0.0
49,0.0
53,11.31731022136225
77,11.2869804093507
78,37.54154804559764
79,21.68795667899739
2,2, 1, 2, 0, 9, 0.00,60.00,Wednesday
7,9.325000000000001
8,0.0
9,0.0
49,0.0
53,11.939957632304608
77,11.645576918167842
78,224.35303249769066
79,202.956016078012
2,2, 1, 2, 0,10, 0.00,60.00,Wednesday
7,11.287499999999998
8,0.0
9,0.0
49,0.0
53,12.591465725182564
77,12.362932679953472
78,269.07607720486806
79,276.10314139535893
2,2, 1, 2, 0,11, 0.00,60.00,Wednesday
7,13.075
8,0.625
9,0.0
49,0.0
53,13.201062716636606
77,13.025735111897637
78,250.02271276069615
79,240.66567217933587
2,2, 1, 2, 0,12, 0.00,60.00,Wednesday
7,13.9
8,1.625
9,0.625
49,0.0
53,13.723458662615343
77,13.67508516591276
78,181.94818056933696
79,206.38133422761928
2,2, 1, 2, 0,13, 0.00,60.00,Wednesday
7,13.9
8,2.0
9,1.0
49,0.0
53,14.361036570226524
77,14.212894255376662
78,274.2849152870066
79,244.56096442432178
2,2, 1, 2, 0,14, 0.00,60.00,Wednesday
7,13.9
8,2.0
9,1.0
49,0.0
53,14.689899041288852
77,14.772792589111074
78,79.67299802452224
79,118.40704231951617
2,2, 1, 2, 0,15, 0.00,60.00,Wednesday
7,12.837499999999999
8,2.0
9,1.0
49,0.0
53,14.751697544086381
77,14.910224250904694
78,36.3483141040624
79,39.11468388829238
2,2, 1, 2, 0,16, 0.00,60.00,Wednesday
7,12.575
8,1.375
9,1.0
49,0.0
53,14.501497955650672
77,14.834483468895783
78,-135.24545884300264
79,-98.88363199119809
2,2, 1, 2, 0,17, 0.00,60.00,Wednesday
7,11.7375
8,1.0
9,0.375
49,0.0
53,13.617961258418227
77,14.079102675449185
78,-339.8583462100247
79,-344.8852270118681
2,2, 1, 2, 0,18, 0.00,60.00,Wednesday
7,10.7875
8,2.25
9,1.25
49,0.0
53,13.172939156659552
77,13.387704751204296
78,-176.73425329106385
79,-189.0698048251656
2,2, 1, 2, 0,19, 0.00,60.00,Wednesday
7,11.287499999999998
8,1.125
9,0.75
49,0.0
53,12.917192075930382
77,13.036657833387663
78,-79.920082374971
79,-93.21714313635769
2,2, 1, 2, 0,20, 0.00,60.00,Wednesday
7,11.7
8,0.0
9,0.0
49,0.0
53,12.84791366673726
77,12.908179782987723
78,-19.757025648831174
79,-25.72375808080667
2,2, 1, 2, 0,21, 0.00,60.00,Wednesday
7,10.6375
8,0.0
9,0.0
49,0.0
53,12.716183664632732
77,12.825005407491044
78,-59.43167763216661
79,-49.28150988970759
2,2, 1, 2, 0,22, 0.00,60.00,Wednesday
7,9.3125
8,0.0
9,0.0
49,0.0
53,12.425356976714099
77,12.587378134166372
78,-112.10434706118039
79,-106.89731507422309
2,2, 1, 2, 0,23, 0.00,60.00,Wednesday
7,9.2125
8,0.0
9,0.0
49,0.0
53,12.203083484293202
77,12.322410934182878
78,-68.90596017800308
79,-78.28659161840133
2,2, 1, 2, 0,24, 0.00,60.00,Wednesday
7,9.0875
8,0.0
9,0.0
49,0.0
53,12.022557109839408
77,12.147959098351294
78,-69.75990682011802
79,-66.68723095073442
3,2, 1, 2, 0,Wednesday
54,13.011001879270452,10.64248842995526, 4,60,17.318424266319035,13,60
55,17.869797112265037,1.5467403693724207, 4,60,58.50212134445152,13,45
56,1.2079116522214306,0.4345539982973103, 8,60,1.8739912068809272,13,45
57,6.0136919309350745,1.5987707051893223, 2,60,14.152695353388449, 9,60
58,12.601685679230327,10.642488430690433, 4,60,15.043205663145914,14,15
59,11.672195765933319,1.5467403747237314, 4,60,29.764258240973888,10,30
60,1.0519372561945475,0.30221397848355314,15,45,1.4476182028998277,10,45
61,5.761613367252963,1.6528187418781648, 4,60,14.133431141126486, 9,60
62,12.44652803832046,10.642395454586993, 5,15,15.043199026293104,14,15
63,9.46228064632916,1.5467403747237318, 4,60,21.194295524525945,13,60
64,0.9609925207135684,0.3022139783585389,15,45,1.2167074433333176, 5,15
65,5.421809764281434,1.6528187418781648, 4,60,11.750560180910139, 9,60
66,12.61023992333188,10.64239545467472, 5,15,16.23925393997578,15,30
67,11.79584479960643,1.546740369372427, 4,60,36.7231596663664,15,60
68,1.0352104973741214,0.38859616115234025, 9,45,1.4431560675526056,15,45
69,5.570994763322019,1.5987707153142456, 2,60,11.750560180910139, 9,60
70,12.737281334608737,11.677864202986118, 8,60,13.746359597984616,16,60
71,12.741706906800642,11.677864202986118, 9,15,13.746359597984616,17,15
72,1.0491022727338752,0.2638662070757293,18,15,1.4284798181958422, 5,30
73,12.61191198833069,10.973407728132416, 5,30,15.10194689345775,13,60
74,9.132052117719867,-4.783580106069831, 4,60,39.31841107118841,13,45
75,0.8704143254650866,0.16617985250369158,15,60,1.2808868289621231,17,45
76,6.615832418548394,1.4580305984033726,18,60,16.77111220765012, 9,45
10,0.0,0, 1,15,0, 1,15
11,4.,4, 1,15,4, 1,15
2,3, 1, 3, 0, 1, 0.00,60.00,Thursday
7,9.2125
8,0.0
9,0.0
49,0.0
53,11.986083537546918
77,12.033504681476504
78,-1.7884310550833113
79,-13.884118476712723
2,3, 1, 3, 0, 2, 0.00,60.00,Thursday
7,9.775
8,0.0
9,0.0
49,0.0
53,12.033935575487153
77,12.060874677205742
78,9.999023534892
79,11.881572045976503
2,3, 1, 3, 0, 3, 0.00,60.00,Thursday
7,11.375
8,0.0
9,0.0
49,0.0
53,12.03749538674031
77,12.074277870632955
78,-4.131780872278027
79,-0.8644624965743621
2,3, 1, 3, 0, 4, 0.00,60.00,Thursday
7,13.2625
8,0.0
9,0.0
49,0.0
53,12.218379356092349
77,12.125257618410394
78,52.40125494733998
79,41.73109432255318
2,3, 1, 3, 0, 5, 0.00,60.00,Thursday
7,13.212500000000002
8,0.0
9,0.0
49,0.0
53,12.277672995264911
77,12.24188825955721
78,19.927686227244138
79,28.212699808832497
2,3, 1, 3, 0, 6, 0.00,60.00,Thursday
7,12.425
8,0.0
9,0.0
49,0.0
53,12.206811488309064
77,12.242745300578525
78,-14.74785294396889
79,-11.907363873989791
2,3, 1, 3, 0, 7, 0.00,60.00,Thursday
7,11.5125
8,0.0
9,0.0
49,0.0
53,12.10218999638774
77,12.171834444048724
78,-37.27197529472791
79,-34.52628489020752
2,3, 1, 3, 0, 8, 0.00,60.00,Thursday
7,11.1
8,0.0
9,0.0
49,0.0
53,12.138844257084259
77,12.104621289684141
78,15.883731929992122
79,-0.2713453133202428
2,3, 1, 3, 0, 9, 0.00,60.00,Thursday
7,11.474999999999998
8,0.0
9,0.0
49,0.0
53,12.647289117349743
77,12.391392533575205
78,206.06691418197843
79,180.0237160894286
2,3, 1, 3, 0,10, 0.00,60.00,Thursday
7,12.7
8,0.0
9,0.0
49,0.0
53,13.411895935080215
77,13.147498937404793
78,324.4647984415303
79,318.7025129547026
2,3, 1, 3, 0,11, 0.00,60.00,Thursday
7,12.6125
8,0.0
9,0.0
49,0.0
53,13.832216475762522
77,13.833596802472359
78,134.69425379040612
79,172.52297399269085
2,3, 1, 3, 0,12, 0.00,60.00,Thursday
7,13.95
8,0.625
9,0.625
49,0.0
53,14.19471962203628
77,14.117045587123334
78,150.6076036469812
79,123.81583901727427
2,3, 1, 3, 0,13, 0.00,60.00,Thursday
7,15.375000000000002
8,2.25
9,1.625
49,0.0
53,14.760136422609582
77,14.658254388765968
78,216.06621290665228
79,218.88978481036398
2,3, 1, 3, 0,14, 0.00,60.00,Thursday
7,15.912500000000001
8,2.375
9,1.375
49,0.0
53,15.401472238042224
77,15.307540706780191
78,243.07995870342768
79,245.39785823163166
2,3, 1, 3, 0,15, 0.00,60.00,Thursday
7,16.1
8,1.375
9,1.0
49,0.0
53,15.495839834525746
77,15.677358579662544
78,4.667622213137765
79,38.95867844534463
2,3, 1, 3, 0,16, 0.00,60.00,Thursday
7,14.725
8,1.625
9,1.0
49,0.0
53,15.066545050028802
77,15.440259038329765
78,-189.44957083968563
79,-159.11899775920688
2,3, 1, 3, 0,17, 0.00,60.00,Thursday
7,13.9
8,2.0
9,1.625
49,0.0
53,14.175290698672885
77,14.624672556946324
78,-339.8240087562307
79,-347.8545439814301
2,3, 1, 3, 0,18, 0.00,60.00,Thursday
7,13.212500000000002
8,1.375
9,1.375
49,0.0
53,13.8713944952025
77,14.00454228463836
78,-106.38761648659093
79,-133.61103141388443
2,3, 1, 3, 0,19, 0.00,60.00,Thursday
7,12.425
8,1.0
9,1.0