Program Version,EnergyPlus, Version 9.6.0-f420c06a69, YMD=2022.05.12 06:24
1,5,Environment Title[],Latitude[deg],Longitude[deg],Time Zone[],Elevation[m]
2,8,Day of Simulation[],Month[],Day of Month[],DST Indicator[1=yes 0=no],Hour[],StartMinute[],EndMinute[],DayType
3,5,Cumulative Day of Simulation[],Month[],Day of Month[],DST Indicator[1=yes 0=no],DayType  ! When Daily Report Variables Requested
4,2,Cumulative Days of Simulation[],Month[]  ! When Monthly Report Variables Requested
5,1,Cumulative Days of Simulation[] ! When Run Period Report Variables Requested
6,1,Calendar Year of Simulation[] ! When Annual Report Variables Requested
7,1,Environment,Site Outdoor Air Drybulb Temperature [C] !Hourly
8,1,Environment,Site Total Sky Cover [] !Hourly
9,1,Environment,Site Opaque Sky Cover [] !Hourly
10,7,Environment,Site Daylight Saving Time Status [] !Daily [Value,Min,Hour,Minute,Max,Hour,Minute]
11,7,Environment,Site Day Type Index [] !Daily [Value,Min,Hour,Minute,Max,Hour,Minute]
49,1,ZONE ONE,Zone Total Internal Latent Gain Energy [J] !Hourly
50,9,TEST 352 MINUS,Other Equipment Total Heating Energy [J] !Monthly [Value,Min,Day,Hour,Minute,Max,Day,Hour,Minute]
51,9,TEST 352A,Other Equipment Total Heating Energy [J] !Monthly [Value,Min,Day,Hour,Minute,Max,Day,Hour,Minute]
52,9,ZONE ONE,Zone Other Equipment Total Heating Energy [J] !Monthly [Value,Min,Day,Hour,Minute,Max,Day,Hour,Minute]
53,1,ZONE ONE,Zone Mean Radiant Temperature [C] !Hourly
54,7,ZN001:WALL001,Surface Inside Face Temperature [C] !Daily [Value,Min,Hour,Minute,Max,Hour,Minute]
55,7,ZN001:WALL001,Surface Outside Face Temperature [C] !Daily [Value,Min,Hour,Minute,Max,Hour,Minute]
56,7,ZN001:WALL001,Surface Inside Face Convection Heat Transfer Coefficient [W/m2-K] !Daily [Value,Min,Hour,Minute,Max,Hour,Minute]
57,7,ZN001:WALL001,Surface Outside Face Convection Heat Transfer Coefficient [W/m2-K] !Daily [Value,Min,Hour,Minute,Max,Hour,Minute]
58,7,ZN001:WALL002,Surface Inside Face Temperature [C] !Daily [Value,Min,Hour,Minute,Max,Hour,Minute]
59,7,ZN001:WALL002,Surface Outside Face Temperature [C] !Daily [Value,Min,Hour,Minute,Max,Hour,Minute]
60,7,ZN001:WALL002,Surface Inside Face Convection Heat Transfer Coefficient [W/m2-K] !Daily [Value,Min,Hour,Minute,Max,Hour,Minute]
61,7,ZN001:WALL002,Surface Outside Face Convection Heat Transfer Coefficient [W/m2-K] !Daily [Value,Min,Hour,Minute,Max,Hour,Minute]
62,7,ZN001:WALL003,Surface Inside Face Temperature [C] !Daily [Value,Min,Hour,Minute,Max,Hour,Minute]
63,7,ZN001:WALL003,Surface Outside Face Temperature [C] !Daily [Value,Min,Hour,Minute,Max,Hour,Minute]
64,7,ZN001:WALL003,Surface Inside Face Convection Heat Transfer Coefficient [W/m2-K] !Daily [Value,Min,Hour,Minute,Max,Hour,Minute]
65,7,ZN001:WALL003,Surface Outside Face Convection Heat Transfer Coefficient [W/m2-K] !Daily [Value,Min,Hour,Minute,Max,Hour,Minute]
66,7,ZN001:WALL004,Surface Inside Face Temperature [C] !Daily [Value,Min,Hour,Minute,Max,Hour,Minute]
67,7,ZN001:WALL004,Surface Outside Face Temperature [C] !Daily [Value,Min,Hour,Minute,Max,Hour,Minute]
68,7,ZN001:WALL004,Surface Inside Face Convection Heat Transfer Coefficient [W/m2-K] !Daily [Value,Min,Hour,Minute,Max,Hour,Minute]
69,7,ZN001:WALL004,Surface Outside Face Convection Heat Transfer Coefficient [W/m2-K] !Daily [Value,Min,Hour,Minute,Max,Hour,Minute]
70,7,ZN001:FLR001,Surface Inside Face Temperature [C] !Daily [Value,Min,Hour,Minute,Max,Hour,Minute]
71,7,ZN001:FLR001,Surface Outside Face Temperature [C] !Daily [Value,Min,Hour,Minute,Max,Hour,Minute]
72,7,ZN001:FLR001,Surface Inside Face Convection Heat Transfer Coefficient [W/m2-K] !Daily [Value,Min,Hour,Minute,Max,Hour,Minute]
73,7,ZN001:ROOF001,Surface Inside Face Temperature [C] !Daily [Value,Min,Hour,Minute,Max,Hour,Minute]
74,7,ZN001:ROOF001,Surface Outside Face Temperature [C] !Daily [Value,Min,Hour,Minute,Max,Hour,Minute]
75,7,ZN001:ROOF001,Surface Inside Face Convection Heat Transfer Coefficient [W/m2-K] !Daily [Value,Min,Hour,Minute,Max,Hour,Minute]
76,7,ZN001:ROOF001,Surface Outside Face Convection Heat Transfer Coefficient [W/m2-K] !Daily [Value,Min,Hour,Minute,Max,Hour,Minute]
77,1,ZONE ONE,Zone Mean Air Temperature [C] !Hourly
78,1,ZONE ONE,Zone Air Heat Balance Surface Convection Rate [W] !Hourly
79,1,ZONE ONE,Zone Air Heat Balance Air Energy Storage Rate [W] !Hourly
End of Data Dictionary
1,DENVER CENTENNIAL  GOLDEN   N ANN CLG 1% CONDNS DB=>MWB,  37.62,-122.40,  -8.00,   2.00
2,1, 7,21, 0, 1, 0.00,60.00,SummerDesignDay
7,18.966
8,1.25
9,1.25
49,0.0
53,27.732819864668567
77,27.95116538874094
78,-155.47594054019424
79,-155.58072971963972
2,1, 7,21, 0, 2, 0.00,60.00,SummerDesignDay
7,18.244
8,3.25
9,3.25
49,0.0
53,27.295573355275053
77,27.511111165395512
78,-149.62893528609516
79,-150.76480375633506
2,1, 7,21, 0, 3, 0.00,60.00,SummerDesignDay
7,17.731
8,3.375
9,3.375
49,0.0
53,26.876710081233895
77,27.08945572021471
78,-144.46488938614468
79,-145.11905880610027
2,1, 7,21, 0, 4, 0.00,60.00,SummerDesignDay
7,17.275000000000002
8,1.125
9,1.125
49,0.0
53,26.464450701653618
77,26.677336489126343
78,-143.72826520237507
79,-143.73176047488954
2,1, 7,21, 0, 5, 0.00,60.00,SummerDesignDay
7,16.913999999999998
8,1.875
9,1.875
49,0.0
53,26.062066496081606
77,26.27136012401123
78,-139.20334220123675
79,-140.06538287765295
2,1, 7,21, 0, 6, 0.00,60.00,SummerDesignDay
7,16.990000000000002
8,3.0
9,3.0
49,0.0
53,26.036988801019067
77,26.037540653803603
78,51.011317195279034
79,3.6644609280123746
2,1, 7,21, 0, 7, 0.00,60.00,SummerDesignDay
7,17.769
8,3.0
9,3.0
49,0.0
53,26.808679634845664
77,26.578963728185663
78,248.51462994459786
79,249.51766374893685
2,1, 7,21, 0, 8, 0.00,60.00,SummerDesignDay
7,19.783
8,3.0
9,3.0
49,0.0
53,27.432168336480892
77,27.286356069576808
78,251.62468199489868
79,248.38613810379343
2,1, 7,21, 0, 9, 0.00,60.00,SummerDesignDay
7,22.557
8,3.0
9,3.0
49,0.0
53,28.11864548329116
77,28.015721047376463
78,259.12126628616414
79,256.9405710845915
2,1, 7,21, 0,10, 0.00,60.00,SummerDesignDay
7,25.255000000000003
8,2.375
9,2.375
49,0.0
53,28.87946908187221
77,28.76040319037485
78,246.783975710663
79,251.46536900938045
2,1, 7,21, 0,11, 0.00,60.00,SummerDesignDay
7,27.649
8,0.75
9,0.75
49,0.0
53,29.516291694232297
77,29.4127409087237
78,204.4125587087732
79,209.92576031977492
2,1, 7,21, 0,12, 0.00,60.00,SummerDesignDay
7,29.454
8,0.0
9,0.0
49,0.0
53,29.97619036924664
77,29.915047128874846
78,140.0580334336181
79,148.8983517385332
2,1, 7,21, 0,13, 0.00,60.00,SummerDesignDay
7,30.784
8,0.0
9,0.0
49,0.0
53,30.429205481109577
77,30.31611322645808
78,175.62024226273377
79,159.27951637812328
2,1, 7,21, 0,14, 0.00,60.00,SummerDesignDay
7,31.715
8,0.0
9,0.0
49,0.0
53,31.078829860323395
77,30.956374749543347
78,236.33856011230293
79,238.13112899327058
2,1, 7,21, 0,15, 0.00,60.00,SummerDesignDay
7,32.0
8,0.0
9,0.0
49,0.0
53,31.593526810943672
77,31.576644569482117
78,180.7428054430149
79,190.22696584688686
2,1, 7,21, 0,16, 0.00,60.00,SummerDesignDay
7,31.43
8,0.0
9,0.0
49,0.0
53,31.847443221938445
77,31.9789532120662
78,91.54779215344115
79,103.81485652321517
2,1, 7,21, 0,17, 0.00,60.00,SummerDesignDay
7,30.328
8,0.0
9,0.0
49,0.0
53,31.8684733836443
77,32.13911538464804
78,26.147598980398715
79,32.220354154171574
2,1, 7,21, 0,18, 0.00,60.00,SummerDesignDay
7,28.922
8,0.0
9,0.0
49,0.0
53,31.74626409476884
77,32.08405781808451
78,-83.14821492847435
79,-63.159285466130896
2,1, 7,21, 0,19, 0.00,60.00,SummerDesignDay
7,26.927
8,0.0
9,0.0
49,0.0
53,30.98771387251808
77,31.52701675435747
78,-387.8010913504335
79,-343.77593014089314
2,1, 7,21, 0,20, 0.00,60.00,SummerDesignDay
7,25.027
8,0.0
9,0.0
49,0.0
53,29.99169124708311
77,30.355557100873387
78,-359.0151016090766
79,-404.1147010102825
2,1, 7,21, 0,21, 0.00,60.00,SummerDesignDay
7,23.544999999999998
8,0.0
9,0.0
49,0.0
53,29.4986404427128
77,29.703500443071928
78,-159.06853854562166
79,-163.23327658946752
2,1, 7,21, 0,22, 0.00,60.00,SummerDesignDay
7,22.177
8,0.0
9,0.0
49,0.0
53,29.062838995684046
77,29.26791439758338
78,-150.88612171389474
79,-150.20764863266126
2,1, 7,21, 0,23, 0.00,60.00,SummerDesignDay
7,20.999000000000002
8,0.0
9,0.0
49,0.0
53,28.626049205185602
77,28.83338022135686
78,-149.3384363441659
79,-149.89698378670798
2,1, 7,21, 0,24, 0.00,60.00,SummerDesignDay
7,19.935000000000002
8,0.0
9,0.0
49,0.0
53,28.183517104633587
77,28.398026757194145
78,-153.81939932194487
79,-153.03271008955704
3,1, 7,21, 0,SummerDesignDay
54,28.844295452534723,24.745652035544047, 6,15,32.8479858571109,15,30
55,27.610060334676216,15.624055041497313, 5,60,47.07504244682537,13,60
56,1.3015959727042592,0.4508897238555524,17,30,1.6255272010078958,13,60
57,9.797006414707367,9.648713817295645,10,45,10.180839070840056, 7,15
58,29.13786404801682,24.760753657311618, 6,15,32.093621595450074,16,30
59,30.14562739913913,15.752127214260112, 5,60,52.84684066200647, 9,45
60,1.3223582240114045,0.3235235232804085,17,15,1.8452074855002063, 9,45
61,11.66057591492189,11.426194862716955, 7,15,12.07182371949801,19,60
62,28.636584636279096,24.76059794908161, 6,15,32.23102108199626,18,15
63,25.711426578319436,15.752127214260112, 5,60,35.57747331194796,14,60
64,1.039428836862645,0.3000597813140379, 7,45,1.4308723103365102, 5,15
65,11.6685777561066,11.47636668350892,19,15,11.955716518788481, 6,45
66,29.103305713819566,24.760457223160028, 6,15,34.96107916957609,17,15
67,30.01021188270623,15.752127214260112, 5,60,60.512820178921274,17,15
68,1.3236185845197308,0.36791588207180176,10,45,1.8643258645044822,17,15
69,11.666218050322662,11.42618385474861,19,45,12.17109803589677, 7,15
70,28.998078621121888,27.028647595532117, 7,30,31.00508190330013,19,15
71,28.99807110412875,27.028647595532117, 7,45,31.00508190330013,19,30
72,1.1399256142082874,0.36291705412047426, 8,45,1.6229846807088846, 5,30
73,29.100539439742533,25.713848932350896, 6,15,32.163281823979226,16,30
74,32.35633669229022,12.853276972963991, 5,60,61.85800041675486,13,45
75,0.8140947438483876,0.26337860756752174, 7,15,1.3128742173597547,20,15
76,13.388854972155167,13.087087323438602,17,45,14.022385311112433,19,45
10,0.0,0, 1,15,0, 1,15
11,9.,9, 1,15,9, 1,15
4,1, 7
50,-30412800.0,-316800.0,21, 1,15,-316800.0,21, 1,15
51,30412800.0,316800.0,21, 1,15,316800.0,21, 1,15
52,0.0,0.0,21, 1,15,0.0,21, 1,15
1,DENVER CENTENNIAL  GOLDEN   N ANN HTG 99% CONDNS DB,  37.62,-122.40,  -8.00,   2.00
2,1,12,21, 0, 1, 0.00,60.00,WinterDesignDay
7,-15.5
8,1.25
9,1.25
49,0.0
53,-17.876952030371072
77,-17.87998463083383
78,-0.02100393282389801
79,-0.02107082687893353
2,1,12,21, 0, 2, 0.00,60.00,WinterDesignDay
7,-15.5
8,3.25
9,3.25
49,0.0
53,-17.877004756218543
77,-17.880035225787292
78,-0.020476636132680248
79,-0.02054185310312612
2,1,12,21, 0, 3, 0.00,60.00,WinterDesignDay
7,-15.5
8,3.375
9,3.375
49,0.0
53,-17.877056157212227
77,-17.880084550539916
78,-0.01996255939428515
79,-0.020026141212100144
2,1,12,21, 0, 4, 0.00,60.00,WinterDesignDay
7,-15.5
8,1.125
9,1.125
49,0.0
53,-17.87710626662956
77,-17.88013263693879
78,-0.019461372117929532
79,-0.019523359663597303
2,1,12,21, 0, 5, 0.00,60.00,WinterDesignDay
7,-15.5
8,1.875
9,1.875
49,0.0
53,-17.877155116912796
77,-17.880179516034765
78,-0.018972752024543738
79,-0.01903318516604301
2,1,12,21, 0, 6, 0.00,60.00,WinterDesignDay
7,-15.5
8,3.0
9,3.0
49,0.0
53,-17.87720273968992
77,-17.880225218102233
78,-0.018496384840810176
79,-0.01855530244523358
2,1,12,21, 0, 7, 0.00,60.00,WinterDesignDay
7,-15.5
8,3.0
9,3.0
49,0.0
53,-17.877249165794993
77,-17.880269772658398
78,-0.0180319641032467
79,-0.018089404089717313
2,1,12,21, 0, 8, 0.00,60.00,WinterDesignDay
7,-15.5
8,3.0
9,3.0
49,0.0
53,-17.87729442528816
77,-17.880313208482168
78,-0.017579190964221336
79,-0.017635190307030958
2,1,12,21, 0, 9, 0.00,60.00,WinterDesignDay
7,-15.5
8,3.0
9,3.0
49,0.0
53,-17.877338547474956
77,-17.880355553632413
78,-0.01713777402620531
79,-0.01719236875504792
2,1,12,21, 0,10, 0.00,60.00,WinterDesignDay
7,-15.5
8,2.375
9,2.375
49,0.0
53,-17.877381560925258
77,-17.880396835465984
78,-0.016707429133673735
79,-0.016760654406624085
2,1,12,21, 0,11, 0.00,60.00,WinterDesignDay
7,-15.5
8,0.75
9,0.75
49,0.0
53,-17.877423493491726
77,-17.880437080655135
78,-0.01628787920515462
79,-0.016339769293028713
2,1,12,21, 0,12, 0.00,60.00,WinterDesignDay
7,-15.5
8,0.0
9,0.0
49,0.0
53,-17.877464372327754
77,-17.88047631520458
78,-0.015878854053633873
79,-0.015929442377559437
2,1,12,21, 0,13, 0.00,60.00,WinterDesignDay
7,-15.5
8,0.0
9,0.0
49,0.0
53,-17.87750422390505
77,-17.88051456446812
78,-0.015480090223504828
79,-0.015529409376828235
2,1,12,21, 0,14, 0.00,60.00,WinterDesignDay
7,-15.5
8,0.0
9,0.0
49,0.0
53,-17.877543074030683
77,-17.880551853164828
78,-0.015091330830606431
79,-0.015139412584807816
2,1,12,21, 0,15, 0.00,60.00,WinterDesignDay
7,-15.5
8,0.0
9,0.0
49,0.0
53,-17.877580947863773
77,-17.880588205394915
78,-0.014712325381650349
79,-0.014759200723004512
2,1,12,21, 0,16, 0.00,60.00,WinterDesignDay
7,-15.5
8,0.0
9,0.0
49,0.0
53,-17.877617869931726
77,-17.880623644655103
78,-0.014342829637056465
79,-0.014388528769902677
2,1,12,21, 0,17, 0.00,60.00,WinterDesignDay
7,-15.5
8,0.0
9,0.0
49,0.0
53,-17.8776538641461
77,-17.880658193853737
78,-0.013982605441303253
79,-0.014027157837705936
2,1,12,21, 0,18, 0.00,60.00,WinterDesignDay
7,-15.5
8,0.0
9,0.0
49,0.0
53,-17.877688953818023
77,-17.880691875325393
78,-0.013631420579665932
79,-0.01367485495160335
2,1,12,21, 0,19, 0.00,60.00,WinterDesignDay
7,-15.5
8,0.0
9,0.0
49,0.0
53,-17.877723161673273
77,-17.880724710845225
78,-0.01328904862987601
79,-0.013331392989484657
2,1,12,21, 0,20, 0.00,60.00,WinterDesignDay
7,-15.5
8,0.0
9,0.0
49,0.0
53,-17.87775650986693
77,-17.88075672164291
78,-0.012955268817108845
79,-0.012996550476195606
2,1,12,21, 0,21, 0.00,60.00,WinterDesignDay
7,-15.5
8,0.0
9,0.0
49,0.0
53,-17.877789019997742
77,-17.880787928416268
78,-0.012629865885557479
79,-0.01267011146394014
2,1,12,21, 0,22, 0.00,60.00,WinterDesignDay
7,-15.5
8,0.0
9,0.0
49,0.0
53,-17.87782071312204
77,-17.88081835134451
78,-0.012312629950203213
79,-0.012351865399034927
2,1,12,21, 0,23, 0.00,60.00,WinterDesignDay
7,-15.5
8,0.0
9,0.0
49,0.0
53,-17.877851609767347
77,-17.880848010101264
78,-0.012003356349664429
79,-0.012041607000296772
2,1,12,21, 0,24, 0.00,60.00,WinterDesignDay
7,-15.5
8,0.0
9,0.0
49,0.0
53,-17.87788172994569
77,-17.880876923867103
78,-0.01170184555468401
79,-0.01173913607594973
3,1,12,21, 0,WinterDesignDay
54,-17.8050507800256,-17.80541446862845,24,60,-17.804607108059678, 1,15
55,-17.46737583240709,-17.46740680806191,24,60,-17.46733804453544, 1,15
56,0.5533496756128554,0.5531943450275453, 1,15,0.5534770755831037,24,60
57,7.151321387890849,7.151320383252264,24,60,7.1513226135002395, 1,15
58,-17.8050507800256,-17.80541446862845,24,60,-17.804607108059678, 1,15
59,-17.46737583240709,-17.46740680806191,24,60,-17.46733804453544, 1,15
60,0.5533496756128554,0.5531943450275453, 1,15,0.5534770755831037,24,60
61,7.151321387890849,7.151320383252264,24,60,7.1513226135002395, 1,15
62,-17.796766126878712,-17.79712993004188,24,60,-17.796322315326442, 1,15
63,-17.422731951348172,-17.422762270424432,24,60,-17.42269496445741, 1,15
64,0.572911220497956,0.5727666395703703, 1,15,0.5730298076934213,24,60
65,7.416216605405379,7.416215427159074,24,60,7.416218042803205, 1,15
66,-17.796766126878712,-17.79712993004188,24,60,-17.796322315326442, 1,15
67,-17.422731951348172,-17.422762270424432,24,60,-17.42269496445741, 1,15
68,0.572911220497956,0.5727666395703703, 1,15,0.5730298076934213,24,60
69,7.416216605405379,7.416215427159074,24,60,7.416218042803205, 1,15
70,-17.88532531013034,-17.885847473097133,24,60,-17.88468827585424, 1,15
71,-17.885313065246155,-17.885838561718902,24,60,-17.884671964214792, 1,15
72,0.12862553920090095,0.12745907071272025, 1,15,0.12957076561162298,24,60
73,-17.96145658711445,-17.96188303366242,24,60,-17.960936352564538, 1,15
74,-20.300862487398746,-20.30086876538355,24,60,-20.30085482869496, 1,15
75,0.6576396353546442,0.6576029541454106, 1,15,0.6576695689331815,24,60
76,8.61900976682328,8.61900960144552,24,60,8.619009968572731, 1,15
10,0.0,0, 1,15,0, 1,15
11,10.,10, 1,15,10, 1,15
4,1,12
50,-30412800.0,-316800.0,21, 1,15,-316800.0,21, 1,15
51,30412800.0,316800.0,21, 1,15,316800.0,21, 1,15
52,0.0,0.0,21, 1,15,0.0,21, 1,15
1,RUN PERIOD 1,  37.62,-122.40,  -8.00,   2.00
2,1, 1, 1, 0, 1, 0.00,60.00,Tuesday
7,7.0125
8,1.25
9,1.25
49,0.0
53,12.10058428584734
77,12.286697159561413
78,-119.10394457421499
79,-118.31451914352348
2,1, 1, 1, 0, 2, 0.00,60.00,Tuesday
7,7.2
8,3.25
9,3.25
49,0.0
53,11.927284068534796
77,12.045427369753998
78,-47.15788380142168
79,-59.560520786346025
2,1, 1, 1, 0, 3, 0.00,60.00,Tuesday
7,6.8875
8,3.375
9,3.375
49,0.0
53,11.736157991084443
77,11.889874122135273
78,-86.69971909946425
79,-76.62034049573649
2,1, 1, 1, 0, 4, 0.00,60.00,Tuesday
7,6.324999999999999
8,1.125
9,1.125
49,0.0
53,11.390935688241187
77,11.588057716663265
78,-136.15636048907623
79,-130.31983197440712
2,1, 1, 1, 0, 5, 0.00,60.00,Tuesday
7,5.0375
8,1.875
9,1.875
49,0.0
53,11.035544722218528
77,11.223645411648217
78,-126.61611509589764
79,-129.98357729086172
2,1, 1, 1, 0, 6, 0.00,60.00,Tuesday
7,4.4
8,3.0
9,3.0
49,0.0
53,10.716375895088067
77,10.896986803666175
78,-115.0930970008223
79,-117.0217121633299
2,1, 1, 1, 0, 7, 0.00,60.00,Tuesday
7,5.4624999999999995
8,3.0
9,3.0
49,0.0
53,10.472734509414778
77,10.628934426485976
78,-83.50104955192043
79,-87.84210267637366
2,1, 1, 1, 0, 8, 0.00,60.00,Tuesday
7,5.4125
8,3.0
9,3.0
49,0.0
53,10.843774783935244
77,10.606416694881435
78,244.94708904293765
79,171.73725090572435
2,1, 1, 1, 0, 9, 0.00,60.00,Tuesday
7,6.750000000000001
8,3.0
9,3.0
49,0.0
53,12.712880171259892
77,12.155266075392449
78,818.5058437410328
79,814.232453945887
2,1, 1, 1, 0,10, 0.00,60.00,Tuesday
7,8.487499999999999
8,2.375
9,2.375
49,0.0
53,14.218211353955192
77,14.135210468519642
78,584.7262332545499
79,604.10808236599
2,1, 1, 1, 0,11, 0.00,60.00,Tuesday
7,9.2125
8,0.75
9,0.75
49,0.0
53,14.882294940044972
77,15.185806719259318
78,179.1999889909507
79,232.34768063534793
2,1, 1, 1, 0,12, 0.00,60.00,Tuesday
7,9.775
8,0.0
9,0.0
49,0.0
53,15.021783904727116
77,15.36483574680543
78,29.68057220662079
79,23.638373935109342
2,1, 1, 1, 0,13, 0.00,60.00,Tuesday
7,10.375
8,0.0
9,0.0
49,0.0
53,15.333075298239404
77,15.537126359104406
78,128.11905392319633
79,106.45916936914435
2,1, 1, 1, 0,14, 0.00,60.00,Tuesday
7,10.9125
8,0.0
9,0.0
49,0.0
53,16.21830991732941
77,16.219944897571253
78,363.4769800005506
79,337.1286914293265
2,1, 1, 1, 0,15, 0.00,60.00,Tuesday
7,12.85
8,0.0
9,0.0
49,0.0
53,17.06418972940981
77,17.26496013069367
78,303.9535612196436
79,342.48839061201267
2,1, 1, 1, 0,16, 0.00,60.00,Tuesday
7,13.9
8,0.0
9,0.0
49,0.0
53,16.590919617675787
77,17.30366292207754
78,-396.35689463715653
79,-303.02858537720954
2,1, 1, 1, 0,17, 0.00,60.00,Tuesday
7,12.15
8,0.0
9,0.0
49,0.0
53,14.893511351070103
77,15.685693342515451
78,-683.964306979388
79,-704.6157829391827
2,1, 1, 1, 0,18, 0.00,60.00,Tuesday
7,11.1
8,0.0
9,0.0
49,0.0
53,14.20579977695186
77,14.457549465683442
78,-233.821351514586
79,-276.49031244305064
2,1, 1, 1, 0,19, 0.00,60.00,Tuesday
7,10.7875
8,0.0
9,0.0
49,0.0
53,13.869978366824451
77,14.03845159847483
78,-116.46231649325054
79,-119.79448796758436
2,1, 1, 1, 0,20, 0.00,60.00,Tuesday
7,10.6
8,0.0
9,0.0
49,0.0
53,13.665123018059285
77,13.789932392817251
78,-66.76130761332765
79,-73.27283674028831
2,1, 1, 1, 0,21, 0.00,60.00,Tuesday
7,9.5375
8,0.0
9,0.0
49,0.0
53,13.37322828980853
77,13.55556287565739
78,-123.18170004548054
79,-111.17373936521943
2,1, 1, 1, 0,22, 0.00,60.00,Tuesday
7,9.2125
8,0.0
9,0.0
49,0.0
53,13.110191471736485
77,13.249805952458528
78,-81.00767691870561
79,-92.61109430255645
2,1, 1, 1, 0,23, 0.00,60.00,Tuesday
7,8.4
8,0.0
9,0.0
49,0.0
53,12.787454833694225
77,12.985457913873153
78,-136.4458374438436
79,-122.90042312759829
2,1, 1, 1, 0,24, 0.00,60.00,Tuesday
7,7.1125
8,0.0
9,0.0
49,0.0
53,12.42366680080402
77,12.609075312812578
78,-125.64027427976035
79,-131.7862645365424
3,1, 1, 1, 0,Tuesday
54,14.145770813552218,9.497537537283282, 8,15,21.35347227337758,15,30
55,20.17310819264357,3.216414963147614, 6,60,55.12422701044944,15,30
56,1.500781051618416,0.8768476898852767,17,30,2.116719250032763,15,30
57,4.984879111913984,1.5971511403781948, 8,15,7.744283981449403, 5,60
58,13.348425666424182,9.496773965268941, 8,15,17.716937958822097,10,60
59,13.37263487395589,3.215727359740767, 6,60,43.86131941649499,10,30
60,1.2539254300938447,0.3621066829809032,15,15,2.0062177023840126, 9,45
61,4.713058041260382,1.591253633860574, 8,15,7.587825124761338,17,30
62,12.833410912331411,9.496780392314005, 8,15,17.201329907450777,15,45
63,9.262837790088337,3.2552053566271706, 6,60,18.661854036539516,15,45
64,1.11789511438987,0.36210663135517035,15,15,1.3829666236346323,17,45
65,4.4058297987905215,0.7114545946146902, 9,30,7.963535815046295,17,30
66,13.171657634054496,9.49745990167154, 8,15,20.47631105113784,15,60
67,12.01346579886718,3.216414963147614, 6,60,45.22018071323858,15,60
68,1.2419940736580983,0.37711218018496456,17,30,1.9067139262237682,15,45
69,4.567307090996365,0.711454823116712, 9,30,7.811073331666449,16,60
70,13.364348654751351,11.401967337262198, 8,30,15.20626348705804,16,60
71,13.364360062678422,11.401967337262198, 8,45,15.20626348705804,17,15
72,1.2412419469930118,0.4142755477826008,17,60,1.5272838254996843, 7,15
73,13.33173994213395,10.108855922213092, 8,15,17.30795493398015,15,60
74,10.702754383630014,-2.9603567207447448, 8,30,34.88471113870573,14,45
75,0.867110391159953,0.11703519384517093,13,30,1.426676512398876,17,45
76,5.215035438724075,1.1567223958473616, 9,15,8.988372543874286,17,30
10,0.0,0, 1,15,0, 1,15
11,3.,3, 1,15,3, 1,15
2,2, 1, 2, 0, 1, 0.00,60.00,Wednesday
7,8.075000000000001
8,0.0
9,0.0
49,0.0
53,12.28621757957022
77,12.383777484404062
78,-29.573717607377844
79,-44.892239137939654
2,2, 1, 2, 0, 2, 0.00,60.00,Wednesday
7,7.15
8,1.25
9,0.625
49,0.0
53,11.887698936102927
77,12.145855987450576
78,-196.52026369182866
79,-161.33636131841405
2,2, 1, 2, 0, 3, 0.00,60.00,Wednesday
7,5.7875
8,1.375
9,1.0
49,0.0
53,11.38878705707463
77,11.606189707074888
78,-156.5185462344561
79,-175.40531396172975
2,2, 1, 2, 0, 4, 0.00,60.00,Wednesday
7,4.5375
8,2.25
9,2.25
49,0.0
53,10.960510402501
77,11.195164248639571
78,-164.41505669683877
79,-158.6024176655945
2,2, 1, 2, 0, 5, 0.00,60.00,Wednesday
7,4.9624999999999995
8,1.125
9,1.125
49,0.0
53,10.729716409704938
77,10.868086718121695
78,-55.43881562546325
79,-75.95316826669067
2,2, 1, 2, 0, 6, 0.00,60.00,Wednesday
7,6.6
8,0.0
9,0.0
49,0.0
53,10.749455778361073
77,10.821939576047143
78,7.142667450506087
79,3.559708075064107
2,2, 1, 2, 0, 7, 0.00,60.00,Wednesday
7,7.575
8,0.0
9,0.0
49,0.0
53,10.751054105260685
77,10.827731008489828
78,-12.237037973104599
79,-7.271301246117603
2,2, 1, 2, 0, 8, 0.00,60.00,Wednesday
7,7.425
8,0.0
9,0.0
49,0.0
53,10.91860121788191
77,10.842500334938347
78,76.227384181006
79,48.381350976649315
2,2, 1, 2, 0, 9, 0.00,60.00,Wednesday
7,9.325000000000001
8,0.0
9,0.0
49,0.0
53,11.902845431054786
77,11.452075688101033
78,420.86974780968603
79,382.86482338984075
2,2, 1, 2, 0,10, 0.00,60.00,Wednesday
7,11.287499999999998
8,0.0
9,0.0
49,0.0
53,12.85461971117763
77,12.445859310489727
78,563.9881234114961
79,516.9879792449597
2,2, 1, 2, 0,11, 0.00,60.00,Wednesday
7,13.075
8,0.625
9,0.0
49,0.0
53,13.756023583807309
77,13.599723611229699
78,399.6695686889704
79,390.12238958205944
2,2, 1, 2, 0,12, 0.00,60.00,Wednesday
7,13.9
8,1.625
9,0.625
49,0.0
53,14.493729714512963
77,14.574954001724826
78,252.64359979356024
79,293.91602685146046
2,2, 1, 2, 0,13, 0.00,60.00,Wednesday
7,13.9
8,2.0
9,1.0
49,0.0
53,15.381860528600063
77,15.28372903400445
78,430.43859006502964
79,377.29436851101616
2,2, 1, 2, 0,14, 0.00,60.00,Wednesday
7,13.9
8,2.0
9,1.0
49,0.0
53,15.836272060581809
77,15.986638527027202
78,198.72006504405627
79,198.9455561123399
2,2, 1, 2, 0,15, 0.00,60.00,Wednesday
7,12.837499999999999
8,2.0
9,1.0
49,0.0
53,15.972089507212093
77,16.292089508233797
78,57.728549295469904
79,71.56302717810469
2,2, 1, 2, 0,16, 0.00,60.00,Wednesday
7,12.575
8,1.375
9,1.0
49,0.0
53,15.63788912101729
77,16.14125408534645
78,-227.333692871352
79,-171.1359559774744
2,2, 1, 2, 0,17, 0.00,60.00,Wednesday
7,11.7375
8,1.0
9,0.375
49,0.0
53,14.248467668475849
77,14.972653781801151
78,-611.8243378907869
79,-619.7496345128618
2,2, 1, 2, 0,18, 0.00,60.00,Wednesday
7,10.7875
8,2.25
9,1.25
49,0.0
53,13.580801535380433
77,13.856539374176199
78,-252.21968768855345
79,-274.61667112549975
2,2, 1, 2, 0,19, 0.00,60.00,Wednesday
7,11.287499999999998
8,1.125
9,0.75
49,0.0
53,13.240287173806898
77,13.390339549626766
78,-100.27414675472302
79,-117.88382701339874
2,2, 1, 2, 0,20, 0.00,60.00,Wednesday
7,11.7
8,0.0
9,0.0
49,0.0
53,13.137643221574525
77,13.225043125934082
78,-29.50145950630711
79,-35.952199473487056
2,2, 1, 2, 0,21, 0.00,60.00,Wednesday
7,10.6375
8,0.0
9,0.0
49,0.0
53,12.93006328205674
77,13.085583348456701
78,-96.07835719163579
79,-81.20416746768117
2,2, 1, 2, 0,22, 0.00,60.00,Wednesday
7,9.3125
8,0.0
9,0.0
49,0.0
53,12.51520772262702
77,12.728427790616454
78,-159.79228884703915
79,-154.26004392873554
2,2, 1, 2, 0,23, 0.00,60.00,Wednesday
7,9.2125
8,0.0
9,0.0
49,0.0
53,12.207707433990235
77,12.362413016511576
78,-91.9255401493915
79,-105.38700060951587
2,2, 1, 2, 0,24, 0.00,60.00,Wednesday
7,9.0875
8,0.0
9,0.0
49,0.0
53,11.958115995143482
77,12.124212709668154
78,-97.9838957332737
79,-93.09373159530163
3,2, 1, 2, 0,Wednesday
54,13.458687345998777,9.755829783128188, 4,60,20.362580564015566,13,60
55,17.823071888618774,2.035138962301918, 4,60,57.32973391449628,13,45
56,1.4303670153272066,0.6616261043061558, 8,60,2.2143070575061814,13,45
57,5.984480622971091,1.4852114682527744, 2,60,14.155214126436329, 9,60
58,12.746614700993112,9.755829790682599, 4,60,16.375393730329588,14,15
59,11.789897032395023,2.0351389966795437, 4,60,29.408876978542445,10,30
60,1.237848623397981,0.43371881121603717,15,15,1.7360375902823006,10,45
61,5.735302528589968,1.5107548211464066, 4,60,14.135757247648847, 9,60
62,12.472787407731607,9.755829790682592, 4,60,16.375371208994366,14,15
63,9.629999137874728,2.035138996679604, 4,60,21.01068614742836,13,60
64,1.1151726618563058,0.429596683667496, 9,45,1.419207870238374, 5,15
65,5.396836008776353,1.510754821146537, 4,60,11.790030894931453, 9,60
66,12.75815316478908,9.75582978312819, 4,60,18.45425717499852,15,60
67,11.891806338806624,2.035138962301977, 4,60,36.15475365288829,15,60
68,1.201001344796338,0.42959668366743825, 9,45,1.6901360932710667,15,45
69,5.544802733989033,1.4852115307392155, 2,60,11.790030894931453, 9,60
70,12.977347464623953,11.39499185654003, 8,60,14.528311243006195,16,60
71,12.983123087120356,11.39499185654003, 9,15,14.528311243006195,17,15
72,1.2055254047816508,0.38543566262487516, 9,60,1.6180976894761725, 5,30
73,12.83520177318581,10.532966537294975, 5,45,16.181950024085197,13,60
74,9.135167202875449,-4.79568139894657, 4,60,39.33240138261825,13,45
75,0.8872171421129135,0.12384301897259745, 8,60,1.3651157760875108,17,45
76,6.615915297200833,1.4573979333315894,18,60,16.772725260854077, 9,45
10,0.0,0, 1,15,0, 1,15
11,4.,4, 1,15,4, 1,15
2,3, 1, 3, 0, 1, 0.00,60.00,Thursday
7,9.2125
8,0.0
9,0.0
49,0.0
53,11.891958624139885
77,11.96092392867571
78,-5.582935759547139
79,-21.81963499585499
2,3, 1, 3, 0, 2, 0.00,60.00,Thursday
7,9.775
8,0.0
9,0.0
49,0.0
53,11.944026866746286
77,11.986587324074769
78,9.760029306564622
79,11.924207022772787
2,3, 1, 3, 0, 3, 0.00,60.00,Thursday
7,11.375
8,0.0
9,0.0
49,0.0
53,11.965829219382051
77,12.007371170683129
78,1.8406624912959044
79,4.352946045924968
2,3, 1, 3, 0, 4, 0.00,60.00,Thursday
7,13.2625
8,0.0
9,0.0
49,0.0
53,12.238245944238564
77,12.105903055106257
78,82.58659152124949
79,68.40033153139609
2,3, 1, 3, 0, 5, 0.00,60.00,Thursday
7,13.212500000000002
8,0.0
9,0.0
49,0.0
53,12.318200222152873
77,12.27916207203067
78,25.66321570527442
79,38.81681992450361
2,3, 1, 3, 0, 6, 0.00,60.00,Thursday
7,12.425
8,0.0
9,0.0
49,0.0
53,12.210545648586567
77,12.266373433904867
78,-27.16759370254148
79,-23.11036251552622
2,3, 1, 3, 0, 7, 0.00,60.00,Thursday
7,11.5125
8,0.0
9,0.0
49,0.0
53,12.051377696426437
77,12.149238028075183
78,-59.343303896034485
79,-55.27614979697054
2,3, 1, 3, 0, 8, 0.00,60.00,Thursday
7,11.1
8,0.0
9,0.0
49,0.0
53,12.131491000340068
77,12.057319346302407
78,41.32927438313261
79,11.853619851964634
2,3, 1, 3, 0, 9, 0.00,60.00,Thursday
7,11.474999999999998
8,0.0
9,0.0
49,0.0
53,12.943480949630132
77,12.595214528502803
78,364.3268284655243
79,323.31123953017055
2,3, 1, 3, 0,10, 0.00,60.00,Thursday
7,12.7
8,0.0
9,0.0
49,0.0
53,14.057838396674015
77,13.58092246665313
78,670.1268823859584
79,599.8073250161475
2,3, 1, 3, 0,11, 0.00,60.00,Thursday
7,12.6125
8,0.0
9,0.0
49,0.0
53,14.656612582668272
77,14.751239608503917
78,221.8985386825266
79,285.5283907494136
2,3, 1, 3, 0,12, 0.00,60.00,Thursday
7,13.95
8,0.625
9,0.625
49,0.0
53,15.144786372456583
77,15.15583262056601
78,210.25190133036142
79,168.5103202571259
2,3, 1, 3, 0,13, 0.00,60.00,Thursday
7,15.375000000000002
8,2.25
9,1.625
49,0.0
53,15.942706503541908
77,15.92811334644869
78,310.7563168528376
79,314.5809545140617
2,3, 1, 3, 0,14, 0.00,60.00,Thursday
7,15.912500000000001
8,2.375
9,1.375
49,0.0
53,16.89127683116603
77,16.888090033787655
78,361.40877543146433
79,364.31652469352053
2,3, 1, 3, 0,15, 0.00,60.00,Thursday
7,16.1
8,1.375
9,1.0
49,0.0
53,17.040083506366635
77,17.408625460450033
78,-21.165019180984697
79,34.365005856325254
2,3, 1, 3, 0,16, 0.00,60.00,Thursday
7,14.725
8,1.625
9,1.0
49,0.0
53,16.41091021144343
77,16.96290542524259
78,-317.962402962409
79,-272.04338224604123
2,3, 1, 3, 0,17, 0.00,60.00,Thursday
7,13.9
8,2.0
9,1.625
49,0.0
53,15.050587867136212
77,15.741756884894471
78,-596.4637396365656
79,-607.1618577845746
2,3, 1, 3, 0,18, 0.00,60.00,Thursday
7,13.212500000000002
8,1.375
9,1.375
49,0.0
53,14.576609654025516
77,14.761641563112223
78,-157.347808694834
79,-194.28908901082423
2,3, 1, 3, 0,19, 0.00,60.00,Thursday
7,12.425
8,1.0
9,1.0
49,0.0
53,14.333042924856278