Program Version,EnergyPlus, Version 9.6.0-f420c06a69, YMD=2022.05.12 06:24
1,5,Environment Title[],Latitude[deg],Longitude[deg],Time Zone[],Elevation[m]
2,8,Day of Simulation[],Month[],Day of Month[],DST Indicator[1=yes 0=no],Hour[],StartMinute[],EndMinute[],DayType
3,5,Cumulative Day of Simulation[],Month[],Day of Month[],DST Indicator[1=yes 0=no],DayType  ! When Daily Report Variables Requested
4,2,Cumulative Days of Simulation[],Month[]  ! When Monthly Report Variables Requested
5,1,Cumulative Days of Simulation[] ! When Run Period Report Variables Requested
6,1,Calendar Year of Simulation[] ! When Annual Report Variables Requested
7,1,Environment,Site Outdoor Air Drybulb Temperature [C] !Hourly
8,1,Environment,Site Total Sky Cover [] !Hourly
9,1,Environment,Site Opaque Sky Cover [] !Hourly
10,7,Environment,Site Daylight Saving Time Status [] !Daily [Value,Min,Hour,Minute,Max,Hour,Minute]
11,7,Environment,Site Day Type Index [] !Daily [Value,Min,Hour,Minute,Max,Hour,Minute]
49,1,ZONE ONE,Zone Total Internal Latent Gain Energy [J] !Hourly
50,9,TEST 352 MINUS,Other Equipment Total Heating Energy [J] !Monthly [Value,Min,Day,Hour,Minute,Max,Day,Hour,Minute]
51,9,TEST 352A,Other Equipment Total Heating Energy [J] !Monthly [Value,Min,Day,Hour,Minute,Max,Day,Hour,Minute]
52,9,ZONE ONE,Zone Other Equipment Total Heating Energy [J] !Monthly [Value,Min,Day,Hour,Minute,Max,Day,Hour,Minute]
53,1,ZONE ONE,Zone Mean Radiant Temperature [C] !Hourly
54,7,ZN001:WALL001,Surface Inside Face Temperature [C] !Daily [Value,Min,Hour,Minute,Max,Hour,Minute]
55,7,ZN001:WALL001,Surface Outside Face Temperature [C] !Daily [Value,Min,Hour,Minute,Max,Hour,Minute]
56,7,ZN001:WALL001,Surface Inside Face Convection Heat Transfer Coefficient [W/m2-K] !Daily [Value,Min,Hour,Minute,Max,Hour,Minute]
57,7,ZN001:WALL001,Surface Outside Face Convection Heat Transfer Coefficient [W/m2-K] !Daily [Value,Min,Hour,Minute,Max,Hour,Minute]
58,7,ZN001:WALL002,Surface Inside Face Temperature [C] !Daily [Value,Min,Hour,Minute,Max,Hour,Minute]
59,7,ZN001:WALL002,Surface Outside Face Temperature [C] !Daily [Value,Min,Hour,Minute,Max,Hour,Minute]
60,7,ZN001:WALL002,Surface Inside Face Convection Heat Transfer Coefficient [W/m2-K] !Daily [Value,Min,Hour,Minute,Max,Hour,Minute]
61,7,ZN001:WALL002,Surface Outside Face Convection Heat Transfer Coefficient [W/m2-K] !Daily [Value,Min,Hour,Minute,Max,Hour,Minute]
62,7,ZN001:WALL003,Surface Inside Face Temperature [C] !Daily [Value,Min,Hour,Minute,Max,Hour,Minute]
63,7,ZN001:WALL003,Surface Outside Face Temperature [C] !Daily [Value,Min,Hour,Minute,Max,Hour,Minute]
64,7,ZN001:WALL003,Surface Inside Face Convection Heat Transfer Coefficient [W/m2-K] !Daily [Value,Min,Hour,Minute,Max,Hour,Minute]
65,7,ZN001:WALL003,Surface Outside Face Convection Heat Transfer Coefficient [W/m2-K] !Daily [Value,Min,Hour,Minute,Max,Hour,Minute]
66,7,ZN001:WALL004,Surface Inside Face Temperature [C] !Daily [Value,Min,Hour,Minute,Max,Hour,Minute]
67,7,ZN001:WALL004,Surface Outside Face Temperature [C] !Daily [Value,Min,Hour,Minute,Max,Hour,Minute]
68,7,ZN001:WALL004,Surface Inside Face Convection Heat Transfer Coefficient [W/m2-K] !Daily [Value,Min,Hour,Minute,Max,Hour,Minute]
69,7,ZN001:WALL004,Surface Outside Face Convection Heat Transfer Coefficient [W/m2-K] !Daily [Value,Min,Hour,Minute,Max,Hour,Minute]
70,7,ZN001:FLR001,Surface Inside Face Temperature [C] !Daily [Value,Min,Hour,Minute,Max,Hour,Minute]
71,7,ZN001:FLR001,Surface Outside Face Temperature [C] !Daily [Value,Min,Hour,Minute,Max,Hour,Minute]
72,7,ZN001:FLR001,Surface Inside Face Convection Heat Transfer Coefficient [W/m2-K] !Daily [Value,Min,Hour,Minute,Max,Hour,Minute]
73,7,ZN001:ROOF001,Surface Inside Face Temperature [C] !Daily [Value,Min,Hour,Minute,Max,Hour,Minute]
74,7,ZN001:ROOF001,Surface Outside Face Temperature [C] !Daily [Value,Min,Hour,Minute,Max,Hour,Minute]
75,7,ZN001:ROOF001,Surface Inside Face Convection Heat Transfer Coefficient [W/m2-K] !Daily [Value,Min,Hour,Minute,Max,Hour,Minute]
76,7,ZN001:ROOF001,Surface Outside Face Convection Heat Transfer Coefficient [W/m2-K] !Daily [Value,Min,Hour,Minute,Max,Hour,Minute]
77,1,ZONE ONE,Zone Mean Air Temperature [C] !Hourly
78,1,ZONE ONE,Zone Air Heat Balance Surface Convection Rate [W] !Hourly
79,1,ZONE ONE,Zone Air Heat Balance Air Energy Storage Rate [W] !Hourly
End of Data Dictionary
1,DENVER CENTENNIAL  GOLDEN   N ANN CLG 1% CONDNS DB=>MWB,  37.62,-122.40,  -8.00,   2.00
2,1, 7,21, 0, 1, 0.00,60.00,SummerDesignDay
7,18.966
8,1.25
9,1.25
49,0.0
53,29.61395797876688
77,29.728208781084184
78,-67.58517675087482
79,-67.47489307019701
2,1, 7,21, 0, 2, 0.00,60.00,SummerDesignDay
7,18.244
8,3.25
9,3.25
49,0.0
53,29.41923896302491
77,29.533598662516376
78,-66.58648551327119
79,-66.85401640446014
2,1, 7,21, 0, 3, 0.00,60.00,SummerDesignDay
7,17.731
8,3.375
9,3.375
49,0.0
53,29.22856242255633
77,29.342813749357184
78,-65.54238648243523
79,-65.66279837879507
2,1, 7,21, 0, 4, 0.00,60.00,SummerDesignDay
7,17.275000000000002
8,1.125
9,1.125
49,0.0
53,29.03770998983322
77,29.153167232521525
78,-66.02422016992674
79,-65.91424906108085
2,1, 7,21, 0, 5, 0.00,60.00,SummerDesignDay
7,16.913999999999998
8,1.875
9,1.875
49,0.0
53,28.847983127175556
77,28.963157596359938
78,-65.35780637977206
79,-65.54322009795277
2,1, 7,21, 0, 6, 0.00,60.00,SummerDesignDay
7,16.990000000000002
8,3.0
9,3.0
49,0.0
53,28.77600050861182
77,28.820411146608627
78,-10.44137602693658
79,-24.944408103390444
2,1, 7,21, 0, 7, 0.00,60.00,SummerDesignDay
7,17.769
8,3.0
9,3.0
49,0.0
53,29.014909757976717
77,28.93670832473076
78,71.2793030912804
79,68.10864712244133
2,1, 7,21, 0, 8, 0.00,60.00,SummerDesignDay
7,19.783
8,3.0
9,3.0
49,0.0
53,29.30306085837097
77,29.161406728133073
78,84.66169245181321
79,82.41558065119327
2,1, 7,21, 0, 9, 0.00,60.00,SummerDesignDay
7,22.557
8,3.0
9,3.0
49,0.0
53,29.635541121060292
77,29.449227909448098
78,116.84481526429579
79,112.22606210110047
2,1, 7,21, 0,10, 0.00,60.00,SummerDesignDay
7,25.255000000000003
8,2.375
9,2.375
49,0.0
53,30.000694546177403
77,29.812876860347213
78,128.5318604022205
79,128.93476622106823
2,1, 7,21, 0,11, 0.00,60.00,SummerDesignDay
7,27.649
8,0.75
9,0.75
49,0.0
53,30.340483712622685
77,30.17223901031855
78,117.82407228952734
79,119.6789217234555
2,1, 7,21, 0,12, 0.00,60.00,SummerDesignDay
7,29.454
8,0.0
9,0.0
49,0.0
53,30.62183460312771
77,30.48353200929589
78,95.53750578895168
79,98.73657109484373
2,1, 7,21, 0,13, 0.00,60.00,SummerDesignDay
7,30.784
8,0.0
9,0.0
49,0.0
53,30.878285152729543
77,30.743025508299347
78,91.6611187414549
79,89.54864131884636
2,1, 7,21, 0,14, 0.00,60.00,SummerDesignDay
7,31.715
8,0.0
9,0.0
49,0.0
53,31.153363721589635
77,31.02359695798359
78,95.40306297624659
79,96.9779931392907
2,1, 7,21, 0,15, 0.00,60.00,SummerDesignDay
7,32.0
8,0.0
9,0.0
49,0.0
53,31.35245999793724
77,31.26756341201231
78,69.37414620847758
79,73.51079065065514
2,1, 7,21, 0,16, 0.00,60.00,SummerDesignDay
7,31.43
8,0.0
9,0.0
49,0.0
53,31.43375241049454
77,31.41510446043857
78,30.410177857141356
79,35.774271596098934
2,1, 7,21, 0,17, 0.00,60.00,SummerDesignDay
7,30.328
8,0.0
9,0.0
49,0.0
53,31.399450298053385
77,31.450895250832744
78,-2.577295759003413
79,0.572909410626679
2,1, 7,21, 0,18, 0.00,60.00,SummerDesignDay
7,28.922
8,0.0
9,0.0
49,0.0
53,31.266799465736646
77,31.39785596916989
78,-39.717063187126044
79,-32.95868036742357
2,1, 7,21, 0,19, 0.00,60.00,SummerDesignDay
7,26.927
8,0.0
9,0.0
49,0.0
53,30.935379986109968
77,31.160790840922463
78,-132.1084515272547
79,-118.17114536494336
2,1, 7,21, 0,20, 0.00,60.00,SummerDesignDay
7,25.027
8,0.0
9,0.0
49,0.0
53,30.57441788739447
77,30.735065368728637
78,-124.27502628162298
79,-136.79707432128683
2,1, 7,21, 0,21, 0.00,60.00,SummerDesignDay
7,23.544999999999998
8,0.0
9,0.0
49,0.0
53,30.373967462888828
77,30.47953115768139
78,-67.32027520786849
79,-69.36990981801243
2,1, 7,21, 0,22, 0.00,60.00,SummerDesignDay
7,22.177
8,0.0
9,0.0
49,0.0
53,30.18991431181175
77,30.294779154797517
78,-63.418695373230506
79,-63.14735554065843
2,1, 7,21, 0,23, 0.00,60.00,SummerDesignDay
7,20.999000000000002
8,0.0
9,0.0
49,0.0
53,30.00359694752865
77,30.110482237055486
78,-63.61677757517013
79,-63.68633823706587
2,1, 7,21, 0,24, 0.00,60.00,SummerDesignDay
7,19.935000000000002
8,0.0
9,0.0
49,0.0
53,29.8124560840037
77,29.923593164727084
78,-65.91774945758837
79,-65.51747939573829
3,1, 7,21, 0,SummerDesignDay
54,30.066717563183882,28.41145610984294, 6,30,31.662603591003375,15,60
55,27.54518826117641,15.175905379370054, 5,60,47.76909697709097,13,45
56,0.8795743445952859,0.27495408938903304,17,45,1.0725085126995788,13,60
57,9.778158145128709,9.64856651283631,16,30,10.06605435831912,19,45
58,30.13840654919862,28.420243858254022, 6,15,31.496178032274543,16,30
59,30.186157421858496,15.3603096830932, 5,60,53.76877068751465, 9,45
60,0.899573180787329,0.257242519002618,17,30,1.2081954604814795, 9,45
61,11.636987296604453,11.42618519789481,12,15,11.975398786599365,19,45
62,30.016435998424214,28.42020726454865, 6,15,31.496178032274525,16,30
63,25.586149102564317,15.3603096830932, 5,60,35.7484303952251,14,60
64,0.7363922935285853,0.10261991385992798, 8,45,0.991162652515369, 6,15
65,11.649789090530303,11.474321742075263,19,15,12.42649092206689, 6,45
66,30.132963831165203,28.415606149126383, 6,30,32.203718059563315,16,60
67,30.039294567637313,15.3603096830932, 5,60,61.53239443568481,17,15
68,0.8956526504228033,0.15405683780136456, 9,30,1.1963700007896099,16,60
69,11.643707978665867,11.426205110015601,14,45,12.003167533759205, 7,30
70,30.130412621011,29.228213365070093, 7,60,31.00572178859643,19,15
71,30.13039265968257,29.228213365070093, 8,15,31.00572178859643,19,30
72,0.8538274556116433,0.2663991980449149,20,15,1.2268870822010263, 6,30
73,30.191739705141813,28.477855865053638, 6,30,31.857042146052635,15,60
74,32.36674584603548,12.880344858098194, 5,60,61.86250223581918,13,45
75,0.8165698119267425,0.24261714225466025, 8,15,1.0948038747154871,20,15
76,13.389222688968696,13.08708712937615,17,45,14.020828034816034,19,45
10,0.0,0, 1,15,0, 1,15
11,9.,9, 1,15,9, 1,15
4,1, 7
50,-30412800.0,-316800.0,21, 1,15,-316800.0,21, 1,15
51,30412800.0,316800.0,21, 1,15,316800.0,21, 1,15
52,0.0,0.0,21, 1,15,0.0,21, 1,15
1,DENVER CENTENNIAL  GOLDEN   N ANN HTG 99% CONDNS DB,  37.62,-122.40,  -8.00,   2.00
2,1,12,21, 0, 1, 0.00,60.00,WinterDesignDay
7,-15.5
8,1.25
9,1.25
49,0.0
53,-18.66963328698551
77,-18.671879447295648
78,-0.0665002698571544
79,-0.06658604944171218
2,1,12,21, 0, 2, 0.00,60.00,WinterDesignDay
7,-15.5
8,3.25
9,3.25
49,0.0
53,-18.669796807329753
77,-18.672040348473338
78,-0.06581826830438997
79,-0.06590316797045326
2,1,12,21, 0, 3, 0.00,60.00,WinterDesignDay
7,-15.5
8,3.375
9,3.375
49,0.0
53,-18.66995865062327
77,-18.67219959940984
78,-0.06514326133928061
79,-0.06522729012221037
2,1,12,21, 0, 4, 0.00,60.00,WinterDesignDay
7,-15.5
8,1.125
9,1.125
49,0.0
53,-18.670118834066805
77,-18.672357217032012
78,-0.06447517722390761
79,-0.06455834405208485
2,1,12,21, 0, 5, 0.00,60.00,WinterDesignDay
7,-15.5
8,1.875
9,1.875
49,0.0
53,-18.670277374171903
77,-18.672513234155865
78,-0.06383864271765094
79,-0.06391401018721107
2,1,12,21, 0, 6, 0.00,60.00,WinterDesignDay
7,-15.5
8,3.0
9,3.0
49,0.0
53,-18.670434294150706
77,-18.672667773681745
78,-0.0632443337932036
79,-0.06332005417741789
2,1,12,21, 0, 7, 0.00,60.00,WinterDesignDay
7,-15.5
8,3.0
9,3.0
49,0.0
53,-18.670589622962122
77,-18.672820838146006
78,-0.06262640712607848
79,-0.06270435422365063
2,1,12,21, 0, 8, 0.00,60.00,WinterDesignDay
7,-15.5
8,3.0
9,3.0
49,0.0
53,-18.67074337112655
77,-18.672972387757195
78,-0.06200047452425306
79,-0.06207890420528078
2,1,12,21, 0, 9, 0.00,60.00,WinterDesignDay
7,-15.5
8,3.0
9,3.0
49,0.0
53,-18.670895548813636
77,-18.673122412747954
78,-0.061373528198231275
79,-0.06145184268280696
2,1,12,21, 0,10, 0.00,60.00,WinterDesignDay
7,-15.5
8,2.375
9,2.375
49,0.0
53,-18.671046168802185
77,-18.673270915422172
78,-0.06074908732621931
79,-0.06082696316604358
2,1,12,21, 0,11, 0.00,60.00,WinterDesignDay
7,-15.5
8,0.75
9,0.75
49,0.0
53,-18.671195245295905
77,-18.67341790433496
78,-0.06012896753104813
79,-0.06020623853295288
2,1,12,21, 0,12, 0.00,60.00,WinterDesignDay
7,-15.5
8,0.0
9,0.0
49,0.0
53,-18.67134279318793
77,-18.673563391258817
78,-0.059514097038007474
79,-0.0595906791433398
2,1,12,21, 0,13, 0.00,60.00,WinterDesignDay
7,-15.5
8,0.0
9,0.0
49,0.0
53,-18.671488827660824
77,-18.673707389592273
78,-0.05890493615374304
79,-0.058980788703702505
2,1,12,21, 0,14, 0.00,60.00,WinterDesignDay
7,-15.5
8,0.0
9,0.0
49,0.0
53,-18.67163336397525
77,-18.673849913520066
78,-0.05830169825787879
79,-0.058376803485603736
2,1,12,21, 0,15, 0.00,60.00,WinterDesignDay
7,-15.5
8,0.0
9,0.0
49,0.0
53,-18.671776417358977
77,-18.673990977570103
78,-0.05770446654860972
79,-0.05777881874988744
2,1,12,21, 0,16, 0.00,60.00,WinterDesignDay
7,-15.5
8,0.0
9,0.0
49,0.0
53,-18.671918002948974
77,-18.674130596380103
78,-0.05711325574148862
79,-0.057186855544902396
2,1,12,21, 0,17, 0.00,60.00,WinterDesignDay
7,-15.5
8,0.0
9,0.0
49,0.0
53,-18.672058135761585
77,-18.674268784575013
78,-0.05652804466285266
79,-0.056600896000662086
2,1,12,21, 0,18, 0.00,60.00,WinterDesignDay
7,-15.5
8,0.0
9,0.0
49,0.0
53,-18.672196830677475
77,-18.674405556702958
78,-0.055948793466751745
79,-0.056020901994403315
2,1,12,21, 0,19, 0.00,60.00,WinterDesignDay
7,-15.5
8,0.0
9,0.0
49,0.0
53,-18.672334102434473
77,-18.674540927202088
78,-0.055375452748748444
79,-0.05544682497123275
2,1,12,21, 0,20, 0.00,60.00,WinterDesignDay
7,-15.5
8,0.0
9,0.0
49,0.0
53,-18.672469965624472
77,-18.67467491038386
78,-0.05480796832010193
79,-0.054878611184625996
2,1,12,21, 0,21, 0.00,60.00,WinterDesignDay
7,-15.5
8,0.0
9,0.0
49,0.0
53,-18.67260443469251
77,-18.67480752042477
78,-0.05424628374662177
79,-0.05431620438412872
2,1,12,21, 0,22, 0.00,60.00,WinterDesignDay
7,-15.5
8,0.0
9,0.0
49,0.0
53,-18.672737523937023
77,-18.674938771362722
78,-0.053690341702448796
79,-0.053759547308170515
2,1,12,21, 0,23, 0.00,60.00,WinterDesignDay
7,-15.5
8,0.0
9,0.0
49,0.0
53,-18.672869247510697
77,-18.675068677095794
78,-0.05314008465440945
79,-0.05320858241717253
2,1,12,21, 0,24, 0.00,60.00,WinterDesignDay
7,-15.5
8,0.0
9,0.0
49,0.0
53,-18.67299961942155
77,-18.675197251382244
78,-0.05259545523729692
79,-0.05266325231677067
3,1,12,21, 0,WinterDesignDay
54,-18.620208235847027,-18.621810228208886,24,60,-18.618471958159805, 1,15
55,-17.457367762473073,-17.45739714836328,24,60,-17.45733591204574, 1,15
56,0.49316644726712333,0.4930268839904036, 1,15,0.4932988028972571,24,60
57,7.1516456460985465,7.151644686463474,24,60,7.15164668623014, 1,15
58,-18.620208235847027,-18.621810228208886,24,60,-18.618471958159805, 1,15
59,-17.457367762473073,-17.45739714836328,24,60,-17.45733591204574, 1,15
60,0.49316644726712333,0.4930268839904036, 1,15,0.4932988028972571,24,60
61,7.1516456460985465,7.151644686463474,24,60,7.15164668623014, 1,15
62,-18.618104946653297,-18.619706964352666,24,60,-18.616368643944643, 1,15
63,-17.41041557623308,-17.41044428083606,24,60,-17.410384464275527, 1,15
64,0.4995591574476241,0.49942321919768884, 1,15,0.49968807207403754,24,60
65,7.4166950205781434,7.416693896101071,24,60,7.416696239374178, 1,15
66,-18.618104946653297,-18.619706964352666,24,60,-18.616368643944643, 1,15
67,-17.41041557623308,-17.41044428083606,24,60,-17.410384464275527, 1,15
68,0.4995591574476241,0.49942321919768884, 1,15,0.49968807207403754,24,60
69,7.4166950205781434,7.416693896101071,24,60,7.416696239374178, 1,15
70,-18.675983216113185,-18.67777442514901,24,60,-18.674041191435645, 1,15
71,-18.675943866075638,-18.677739702860663,24,60,-18.673996821544925, 1,15
72,0.10151315972978885,0.1, 1,15,0.10349167225466635,24,60
73,-18.72944467032264,-18.73106954828159,24,60,-18.727683558964646, 1,15
74,-20.31261841919008,-20.31264286728232,24,60,-20.312591920252547, 1,15
75,0.5810081133017152,0.5809385766467768,24,60,0.581078927366571, 1,15
76,8.618702465716186,8.618701825816633,24,60,8.618703159291432, 1,15
10,0.0,0, 1,15,0, 1,15
11,10.,10, 1,15,10, 1,15
4,1,12
50,-30412800.0,-316800.0,21, 1,15,-316800.0,21, 1,15
51,30412800.0,316800.0,21, 1,15,316800.0,21, 1,15
52,0.0,0.0,21, 1,15,0.0,21, 1,15
1,RUN PERIOD 1,  37.62,-122.40,  -8.00,   2.00
2,1, 1, 1, 0, 1, 0.00,60.00,Tuesday
7,7.0125
8,1.25
9,1.25
49,0.0
53,11.917316478146482
77,12.019435230093482
78,-60.51434377641515
79,-56.91127715180167
2,1, 1, 1, 0, 2, 0.00,60.00,Tuesday
7,7.2
8,3.25
9,3.25
49,0.0
53,11.845539528156294
77,11.896401556039454
78,-17.963110841670556
79,-26.93348071640619
2,1, 1, 1, 0, 3, 0.00,60.00,Tuesday
7,6.8875
8,3.375
9,3.375
49,0.0
53,11.777769695355236
77,11.847815792457412
78,-30.96942444557017
79,-25.60043472995217
2,1, 1, 1, 0, 4, 0.00,60.00,Tuesday
7,6.324999999999999
8,1.125
9,1.125
49,0.0
53,11.621783892960178
77,11.724098576592873
78,-60.571000594459804
79,-56.99236738457682
2,1, 1, 1, 0, 5, 0.00,60.00,Tuesday
7,5.0375
8,1.875
9,1.875
49,0.0
53,11.479549263128783
77,11.568123580177591
78,-48.554074729058875
79,-51.93244125084699
2,1, 1, 1, 0, 6, 0.00,60.00,Tuesday
7,4.4
8,3.0
9,3.0
49,0.0
53,11.34561316302305
77,11.438939181528461
78,-50.46966687638313
79,-49.364956126616285
2,1, 1, 1, 0, 7, 0.00,60.00,Tuesday
7,5.4624999999999995
8,3.0
9,3.0
49,0.0
53,11.203322079076406
77,11.299285647884707
78,-53.76755113476723
79,-53.322862873325924
2,1, 1, 1, 0, 8, 0.00,60.00,Tuesday
7,5.4125
8,3.0
9,3.0
49,0.0
53,11.24841971268927
77,11.212609226264703
78,34.66150050663853
79,8.59106004284525
2,1, 1, 1, 0, 9, 0.00,60.00,Tuesday
7,6.750000000000001
8,3.0
9,3.0
49,0.0
53,11.956268069007695
77,11.627860998558813
78,247.1301606845226
79,230.33760077924256
2,1, 1, 1, 0,10, 0.00,60.00,Tuesday
7,8.487499999999999
8,2.375
9,2.375
49,0.0
53,12.592380193828857
77,12.337048367067549
78,250.2029520690549
79,258.67876276019
2,1, 1, 1, 0,11, 0.00,60.00,Tuesday
7,9.2125
8,0.75
9,0.75
49,0.0
53,12.9520904568114
77,12.861344095008448
78,123.91618538604222
79,143.62638213312061
2,1, 1, 1, 0,12, 0.00,60.00,Tuesday
7,9.775
8,0.0
9,0.0
49,0.0
53,13.102027067928926
77,13.070296661905
78,55.20793226383959
79,55.68394906693691
2,1, 1, 1, 0,13, 0.00,60.00,Tuesday
7,10.375
8,0.0
9,0.0
49,0.0
53,13.281566366562922
77,13.22465534273187
78,68.76911639516743
79,64.17899908119392
2,1, 1, 1, 0,14, 0.00,60.00,Tuesday
7,10.9125
8,0.0
9,0.0
49,0.0
53,13.63030832783078
77,13.501826067081279
78,134.70901631976113
79,127.1556321854458
2,1, 1, 1, 0,15, 0.00,60.00,Tuesday
7,12.85
8,0.0
9,0.0
49,0.0
53,13.922815915713924
77,13.866892413055139
78,105.48246103545601
79,118.43506900914002
2,1, 1, 1, 0,16, 0.00,60.00,Tuesday
7,13.9
8,0.0
9,0.0
49,0.0
53,13.659808619350864
77,13.902398530143216
78,-101.20169843348032
79,-68.79804972908144
2,1, 1, 1, 0,17, 0.00,60.00,Tuesday
7,12.15
8,0.0
9,0.0
49,0.0
53,13.049159999061407
77,13.388291116160781
78,-222.22355878451384
79,-227.43863404055605
2,1, 1, 1, 0,18, 0.00,60.00,Tuesday
7,11.1
8,0.0
9,0.0
49,0.0
53,12.791043001179302
77,12.93798086917766
78,-107.8160077546489
79,-120.08039748614888
2,1, 1, 1, 0,19, 0.00,60.00,Tuesday
7,10.7875
8,0.0
9,0.0
49,0.0
53,12.640638470033048
77,12.727858467973526
78,-56.01752907390781
79,-59.88432107121112
2,1, 1, 1, 0,20, 0.00,60.00,Tuesday
7,10.6
8,0.0
9,0.0
49,0.0
53,12.56271079034968
77,12.617147576780882
78,-26.87582406837138
79,-30.300544819408557
2,1, 1, 1, 0,21, 0.00,60.00,Tuesday
7,9.5375
8,0.0
9,0.0
49,0.0
53,12.45077527308893
77,12.531858277626224
78,-44.690246212659645
79,-39.964069835522565
2,1, 1, 1, 0,22, 0.00,60.00,Tuesday
7,9.2125
8,0.0
9,0.0
49,0.0
53,12.34753287052129
77,12.41342013708761
78,-34.46099344890963
79,-38.35459472520259
2,1, 1, 1, 0,23, 0.00,60.00,Tuesday
7,8.4
8,0.0
9,0.0
49,0.0
53,12.210140650064124
77,12.30496397710796
78,-55.07437350913227
79,-49.646920242513694
2,1, 1, 1, 0,24, 0.00,60.00,Tuesday
7,7.1125
8,0.0
9,0.0
49,0.0
53,12.06904330229688
77,12.154508692767752
78,-48.237755978452476
79,-51.55628846887495
3,1, 1, 1, 0,Tuesday
54,12.630145021257519,10.881121312644812, 8,15,15.115436139416204,15,30
55,20.430161791945114,2.716056576775356, 6,60,57.013336158803355,15,30
56,0.9985910198874298,0.49906993082447576,17,15,1.4366132970344019,11,15
57,5.013072202463873,1.5879846197184175, 8,45,7.691770244496966, 5,60
58,12.42345250121823,10.880985091852832, 8,15,14.031806997872815,15,45
59,13.305946394638669,2.7157898018204585, 6,60,45.47302497851141,10,30
60,0.8746701247247186,0.42988204482123815, 8,45,1.3763186805809158,10,15
61,4.732929631112892,1.7574363268915203, 8,15,7.483217775699672,17,30
62,12.293183239385927,10.880985499396925, 8,15,14.031806997868909,15,45
63,8.940631233085977,2.7734750723212063, 6,60,18.712159584170283,15,45
64,0.7789516115154154,0.3431532136195859, 9,30,0.9712008405283624,17,45
65,4.422172696600627,1.0368798704391582, 9,30,7.845933877792209,17,30
66,12.380601359045833,10.881112674851291, 8,15,14.873972216414046,15,60
67,11.844481889117105,2.716056576775356, 6,60,46.720007418289946,15,60
68,0.834432906931736,0.34315319958032386, 9,30,1.3045111156826181,15,45
69,4.5899564555257575,1.0368798535213735, 9,30,7.826771237399092,16,60
70,12.396600749132388,11.597462818623786, 8,60,13.10129592867334,16,60
71,12.396625632123671,11.597462818623786, 9,15,13.10129592867334,17,15
72,0.8938118986183464,0.22029036014081446,18,30,1.1504383508861282, 8,30
73,12.372867706084124,10.827841656796732, 8,15,14.338677621816027,15,30
74,10.687150944984758,-2.9387662230823204, 8,30,34.8465354387594,14,45
75,0.8674542786595975,0.3804459783412818, 9,30,1.1735264144977873,17,45
76,5.214443304291816,1.1589568074013377, 9,15,8.986591002425731,17,30
10,0.0,0, 1,15,0, 1,15
11,3.,3, 1,15,3, 1,15
2,2, 1, 2, 0, 1, 0.00,60.00,Wednesday
7,8.075000000000001
8,0.0
9,0.0
49,0.0
53,12.012762738908524
77,12.062130563624487
78,-17.655110658621567
79,-22.212393640133513
2,2, 1, 2, 0, 2, 0.00,60.00,Wednesday
7,7.15
8,1.25
9,0.625
49,0.0
53,11.814989462939273
77,11.949635373581547
78,-87.66826201451187
79,-72.47520275290479
2,2, 1, 2, 0, 3, 0.00,60.00,Wednesday
7,5.7875
8,1.375
9,1.0
49,0.0
53,11.581032289351644
77,11.697389836029139
78,-76.42702248732354
79,-84.74557380293307
2,2, 1, 2, 0, 4, 0.00,60.00,Wednesday
7,4.5375
8,2.25
9,2.25
49,0.0
53,11.388463263192502
77,11.507116482277787
78,-71.90834434692391
79,-70.18671087158891
2,2, 1, 2, 0, 5, 0.00,60.00,Wednesday
7,4.9624999999999995
8,1.125
9,1.125
49,0.0
53,11.289687005161372
77,11.359175305658791
78,-27.32113932596822
79,-36.099570343031914
2,2, 1, 2, 0, 6, 0.00,60.00,Wednesday
7,6.6
8,0.0
9,0.0
49,0.0
53,11.30453227608702
77,11.336739740589412
78,3.4911046251482833
79,1.8826895749010595
2,2, 1, 2, 0, 7, 0.00,60.00,Wednesday
7,7.575
8,0.0
9,0.0
49,0.0
53,11.306365061690762
77,11.34168772200007
78,-4.114134534020669
79,-2.0023119358519037
2,2, 1, 2, 0, 8, 0.00,60.00,Wednesday
7,7.425
8,0.0
9,0.0
49,0.0
53,11.340096533640672
77,11.333420863758008
78,12.700492006314516
79,5.723368919398917
2,2, 1, 2, 0, 9, 0.00,60.00,Wednesday
7,9.325000000000001
8,0.0
9,0.0
49,0.0
53,11.68602056518534
77,11.497946583119905
78,109.3945200504875
79,97.7058781604224
2,2, 1, 2, 0,10, 0.00,60.00,Wednesday
7,11.287499999999998
8,0.0
9,0.0
49,0.0
53,12.079460690442371
77,11.874035174638973
78,153.99417291045407
79,153.7824986690151
2,2, 1, 2, 0,11, 0.00,60.00,Wednesday
7,13.075
8,0.625
9,0.0
49,0.0
53,12.473888903115414
77,12.281108450005561
78,159.74397770978047
79,153.87281898827442
2,2, 1, 2, 0,12, 0.00,60.00,Wednesday
7,13.9
8,1.625
9,0.625
49,0.0
53,12.831103633086673
77,12.706888244291662
78,128.37779094896717
79,141.4154483166631
2,2, 1, 2, 0,13, 0.00,60.00,Wednesday
7,13.9
8,2.0
9,1.0
49,0.0
53,13.269048746171299
77,13.07983485866578
78,178.26097196565482
79,162.80715833154485
2,2, 1, 2, 0,14, 0.00,60.00,Wednesday
7,13.9
8,2.0
9,1.0
49,0.0
53,13.456963597819083
77,13.44110969005049
78,53.72924550985863
79,77.97720214910001
2,2, 1, 2, 0,15, 0.00,60.00,Wednesday
7,12.837499999999999
8,2.0
9,1.0
49,0.0
53,13.470195162863892
77,13.515021765975874
78,12.77042958110126
79,15.041054701133573
2,2, 1, 2, 0,16, 0.00,60.00,Wednesday
7,12.575
8,1.375
9,1.0
49,0.0
53,13.274484814247625
77,13.464823174384403
78,-70.10085868769579
79,-52.01356208662509
2,2, 1, 2, 0,17, 0.00,60.00,Wednesday
7,11.7375
8,1.0
9,0.375
49,0.0
53,12.768833838872265
77,13.064164178753485
78,-186.176150258445
79,-187.38394235368781
2,2, 1, 2, 0,18, 0.00,60.00,Wednesday
7,10.7875
8,2.25
9,1.25
49,0.0
53,12.503702595067637
77,12.664327910672377
78,-116.0541300314266
79,-119.69774396210173
2,2, 1, 2, 0,19, 0.00,60.00,Wednesday
7,11.287499999999998
8,1.125
9,0.75
49,0.0
53,12.321826606037046
77,12.412115600302192
78,-62.38280577430326
79,-71.6996066381708
2,2, 1, 2, 0,20, 0.00,60.00,Wednesday
7,11.7
8,0.0
9,0.0
49,0.0
53,12.276813828813733
77,12.312226776412674
78,-13.389083397892321
79,-18.79685721894306
2,2, 1, 2, 0,21, 0.00,60.00,Wednesday
7,10.6375
8,0.0
9,0.0
49,0.0
53,12.203292027944924
77,12.26881533079051
78,-32.18978849235177
79,-25.84532751080176
2,2, 1, 2, 0,22, 0.00,60.00,Wednesday
7,9.3125
8,0.0
9,0.0
49,0.0
53,12.01283034239348
77,12.124831884503337
78,-73.19151141143024
79,-68.60318123220569
2,2, 1, 2, 0,23, 0.00,60.00,Wednesday
7,9.2125
8,0.0
9,0.0
49,0.0
53,11.862686293986686
77,11.945129430336706
78,-48.68684007011886
79,-54.786243487503285
2,2, 1, 2, 0,24, 0.00,60.00,Wednesday
7,9.0875
8,0.0
9,0.0
49,0.0
53,11.741345408794789
77,11.825222665017233
78,-46.27285425077854
79,-44.63029253353292
3,2, 1, 2, 0,Wednesday
54,12.343047391859388,11.03783432116303, 4,60,14.664918757792291,13,60
55,17.89618593904782,1.1579720664288264, 4,60,59.326900016893674,13,45
56,0.9488099522420307,0.3016185852608896, 8,60,1.4847052987468676,13,45
57,6.034216019279892,1.6762771666402716, 2,60,14.151021300460451, 9,60
58,12.15840059541334,11.037834321262045, 4,60,13.636345959389045,14,15
59,11.58800350607823,1.157972068043941, 4,60,30.005904126408428,10,30
60,0.840013702896863,0.24853770553846097,15,60,1.1648674212589774,10,45
61,5.780445960699922,1.7351603452841262, 2,60,14.131907277193314, 9,60
62,12.089756057356501,11.03232189909471, 5,30,13.636344086264565,14,15
63,9.343565217617424,1.1579720680439334, 4,60,21.374066928368226,13,60
64,0.7837717684397685,0.2485377055379226,15,60,0.9621362166286073, 5,15
65,5.439672650732263,1.7351603474544954, 2,60,11.723959969477606, 9,60
66,12.163301967157151,11.032321899093905, 5,30,14.17602489203255,15,30
67,11.72633957036386,1.1579720664288327, 4,60,37.1523559377722,15,60
68,0.8378309572450098,0.3507313023620084, 9,30,1.1417810943503661,15,45
69,5.589448440723362,1.6762771678170778, 2,60,11.723959969477606, 9,60
70,12.223305421759498,11.578736118243897, 8,60,12.828393180784161,16,60
71,12.226529431652558,11.578736118243897, 9,15,12.828393180784161,17,15
72,0.884328251526244,0.13669387131351446,10,15,1.2245734387069784, 5,30
73,12.119732866146457,10.996753741570553, 5,15,13.976725678044513,13,60
74,9.12362112704983,-4.7834791112685755, 4,60,39.30349188473107,13,45
75,0.8555605175084913,0.146357991451111,16,45,1.1663152023790795, 3,15
76,6.61587603903743,1.4590912609881084,18,60,16.76906579963684, 9,45
10,0.0,0, 1,15,0, 1,15
11,4.,4, 1,15,4, 1,15
2,3, 1, 3, 0, 1, 0.00,60.00,Thursday
7,9.2125
8,0.0
9,0.0
49,0.0
53,11.730343127135908
77,11.752848291515967
78,2.2687877103442133
79,-6.4638469166591275
2,3, 1, 3, 0, 2, 0.00,60.00,Thursday
7,9.775
8,0.0
9,0.0
49,0.0
53,11.775832226519395
77,11.783712535496953
78,11.080846680853627
79,12.665173465668856
2,3, 1, 3, 0, 3, 0.00,60.00,Thursday
7,11.375
8,0.0
9,0.0
49,0.0
53,11.77011531522316
77,11.796582311556087
78,-5.763447383081103
79,-2.178400320546196
2,3, 1, 3, 0, 4, 0.00,60.00,Thursday
7,13.2625
8,0.0
9,0.0
49,0.0
53,11.883980635335218
77,11.818143271229577
78,31.57535989633783
79,23.67536877784569
2,3, 1, 3, 0, 5, 0.00,60.00,Thursday
7,13.212500000000002
8,0.0
9,0.0
49,0.0
53,11.930160325389112
77,11.8947459568877
78,15.585086224645528
79,20.447794572761048
2,3, 1, 3, 0, 6, 0.00,60.00,Thursday
7,12.425
8,0.0
9,0.0
49,0.0
53,11.890553388178928
77,11.906002122427243
78,-4.832946042517676
79,-3.0888547152053674
2,3, 1, 3, 0, 7, 0.00,60.00,Thursday
7,11.5125
8,0.0
9,0.0
49,0.0
53,11.829655333955127
77,11.872479481477617
78,-19.720227924071015
79,-17.919256456486067
2,3, 1, 3, 0, 8, 0.00,60.00,Thursday
7,11.1
8,0.0
9,0.0
49,0.0
53,11.837901293951877
77,11.829910229084945
78,1.9006469002197743
79,-5.465918842348413
2,3, 1, 3, 0, 9, 0.00,60.00,Thursday
7,11.474999999999998
8,0.0
9,0.0
49,0.0
53,12.114560361193176
77,11.949924689776168
78,95.10514469930088
79,81.16358590892769
2,3, 1, 3, 0,10, 0.00,60.00,Thursday
7,12.7
8,0.0
9,0.0
49,0.0
53,12.578070328875555
77,12.344495174798922
78,186.1350505697169
79,178.6473532386587
2,3, 1, 3, 0,11, 0.00,60.00,Thursday
7,12.6125
8,0.0
9,0.0
49,0.0
53,12.859207124225009
77,12.77215621391581
78,99.03470196628194
79,119.48709891692562
2,3, 1, 3, 0,12, 0.00,60.00,Thursday
7,13.95
8,0.625
9,0.625
49,0.0
53,13.123147681968824
77,12.995487711121736
78,107.86181203335494
79,92.99260729527991
2,3, 1, 3, 0,13, 0.00,60.00,Thursday
7,15.375000000000002
8,2.25
9,1.625
49,0.0
53,13.504463968689603
77,13.358858888157346
78,141.3770143503873
79,143.92877527500332
2,3, 1, 3, 0,14, 0.00,60.00,Thursday
7,15.912500000000001
8,2.375
9,1.375
49,0.0
53,13.893605192790899
77,13.75995653427568
78,145.27347047215005
79,147.8940621860649
2,3, 1, 3, 0,15, 0.00,60.00,Thursday
7,16.1
8,1.375
9,1.0
49,0.0
53,13.930872699531939
77,13.98349651005086
78,6.129843398251209
79,26.2077576053806
2,3, 1, 3, 0,16, 0.00,60.00,Thursday
7,14.725
8,1.625
9,1.0
49,0.0
53,13.63954172604343
77,13.860435503240522
78,-99.47906785889012
79,-83.87241179131138
2,3, 1, 3, 0,17, 0.00,60.00,Thursday
7,13.9
8,2.0
9,1.625
49,0.0
53,13.101719868739805
77,13.409140460910155
78,-201.33998294008126
79,-201.9146602365111
2,3, 1, 3, 0,18, 0.00,60.00,Thursday
7,13.212500000000002
8,1.375
9,1.375
49,0.0
53,12.930944432872076
77,13.02527887298259
78,-68.83735399461946
79,-86.6587162412865
2,3, 1, 3, 0,19, 0.00,60.00,Thursday
7,12.425
8,1.0
9,1.0
49,0.0
53,12.841887177986806
77,12.909003262994384