Program Version,EnergyPlus, Version 9.6.0-f420c06a69, YMD=2022.05.12 06:24
1,5,Environment Title[],Latitude[deg],Longitude[deg],Time Zone[],Elevation[m]
2,8,Day of Simulation[],Month[],Day of Month[],DST Indicator[1=yes 0=no],Hour[],StartMinute[],EndMinute[],DayType
3,5,Cumulative Day of Simulation[],Month[],Day of Month[],DST Indicator[1=yes 0=no],DayType  ! When Daily Report Variables Requested
4,2,Cumulative Days of Simulation[],Month[]  ! When Monthly Report Variables Requested
5,1,Cumulative Days of Simulation[] ! When Run Period Report Variables Requested
6,1,Calendar Year of Simulation[] ! When Annual Report Variables Requested
7,1,Environment,Site Outdoor Air Drybulb Temperature [C] !Hourly
8,1,Environment,Site Total Sky Cover [] !Hourly
9,1,Environment,Site Opaque Sky Cover [] !Hourly
10,7,Environment,Site Daylight Saving Time Status [] !Daily [Value,Min,Hour,Minute,Max,Hour,Minute]
11,7,Environment,Site Day Type Index [] !Daily [Value,Min,Hour,Minute,Max,Hour,Minute]
49,1,ZONE ONE,Zone Total Internal Latent Gain Energy [J] !Hourly
50,9,TEST 352 MINUS,Other Equipment Total Heating Energy [J] !Monthly [Value,Min,Day,Hour,Minute,Max,Day,Hour,Minute]
51,9,TEST 352A,Other Equipment Total Heating Energy [J] !Monthly [Value,Min,Day,Hour,Minute,Max,Day,Hour,Minute]
52,9,ZONE ONE,Zone Other Equipment Total Heating Energy [J] !Monthly [Value,Min,Day,Hour,Minute,Max,Day,Hour,Minute]
53,1,ZONE ONE,Zone Mean Radiant Temperature [C] !Hourly
54,7,ZN001:WALL001,Surface Inside Face Temperature [C] !Daily [Value,Min,Hour,Minute,Max,Hour,Minute]
55,7,ZN001:WALL001,Surface Outside Face Temperature [C] !Daily [Value,Min,Hour,Minute,Max,Hour,Minute]
56,7,ZN001:WALL001,Surface Inside Face Convection Heat Transfer Coefficient [W/m2-K] !Daily [Value,Min,Hour,Minute,Max,Hour,Minute]
57,7,ZN001:WALL001,Surface Outside Face Convection Heat Transfer Coefficient [W/m2-K] !Daily [Value,Min,Hour,Minute,Max,Hour,Minute]
58,7,ZN001:WALL002,Surface Inside Face Temperature [C] !Daily [Value,Min,Hour,Minute,Max,Hour,Minute]
59,7,ZN001:WALL002,Surface Outside Face Temperature [C] !Daily [Value,Min,Hour,Minute,Max,Hour,Minute]
60,7,ZN001:WALL002,Surface Inside Face Convection Heat Transfer Coefficient [W/m2-K] !Daily [Value,Min,Hour,Minute,Max,Hour,Minute]
61,7,ZN001:WALL002,Surface Outside Face Convection Heat Transfer Coefficient [W/m2-K] !Daily [Value,Min,Hour,Minute,Max,Hour,Minute]
62,7,ZN001:WALL003,Surface Inside Face Temperature [C] !Daily [Value,Min,Hour,Minute,Max,Hour,Minute]
63,7,ZN001:WALL003,Surface Outside Face Temperature [C] !Daily [Value,Min,Hour,Minute,Max,Hour,Minute]
64,7,ZN001:WALL003,Surface Inside Face Convection Heat Transfer Coefficient [W/m2-K] !Daily [Value,Min,Hour,Minute,Max,Hour,Minute]
65,7,ZN001:WALL003,Surface Outside Face Convection Heat Transfer Coefficient [W/m2-K] !Daily [Value,Min,Hour,Minute,Max,Hour,Minute]
66,7,ZN001:WALL004,Surface Inside Face Temperature [C] !Daily [Value,Min,Hour,Minute,Max,Hour,Minute]
67,7,ZN001:WALL004,Surface Outside Face Temperature [C] !Daily [Value,Min,Hour,Minute,Max,Hour,Minute]
68,7,ZN001:WALL004,Surface Inside Face Convection Heat Transfer Coefficient [W/m2-K] !Daily [Value,Min,Hour,Minute,Max,Hour,Minute]
69,7,ZN001:WALL004,Surface Outside Face Convection Heat Transfer Coefficient [W/m2-K] !Daily [Value,Min,Hour,Minute,Max,Hour,Minute]
70,7,ZN001:FLR001,Surface Inside Face Temperature [C] !Daily [Value,Min,Hour,Minute,Max,Hour,Minute]
71,7,ZN001:FLR001,Surface Outside Face Temperature [C] !Daily [Value,Min,Hour,Minute,Max,Hour,Minute]
72,7,ZN001:FLR001,Surface Inside Face Convection Heat Transfer Coefficient [W/m2-K] !Daily [Value,Min,Hour,Minute,Max,Hour,Minute]
73,7,ZN001:ROOF001,Surface Inside Face Temperature [C] !Daily [Value,Min,Hour,Minute,Max,Hour,Minute]
74,7,ZN001:ROOF001,Surface Outside Face Temperature [C] !Daily [Value,Min,Hour,Minute,Max,Hour,Minute]
75,7,ZN001:ROOF001,Surface Inside Face Convection Heat Transfer Coefficient [W/m2-K] !Daily [Value,Min,Hour,Minute,Max,Hour,Minute]
76,7,ZN001:ROOF001,Surface Outside Face Convection Heat Transfer Coefficient [W/m2-K] !Daily [Value,Min,Hour,Minute,Max,Hour,Minute]
77,1,ZONE ONE,Zone Mean Air Temperature [C] !Hourly
78,1,ZONE ONE,Zone Air Heat Balance Surface Convection Rate [W] !Hourly
79,1,ZONE ONE,Zone Air Heat Balance Air Energy Storage Rate [W] !Hourly
End of Data Dictionary
1,DENVER CENTENNIAL  GOLDEN   N ANN CLG 1% CONDNS DB=>MWB,  37.62,-122.40,  -8.00,   2.00
2,1, 7,21, 0, 1, 0.00,60.00,SummerDesignDay
7,18.966
8,1.25
9,1.25
49,0.0
53,29.352150257839774
77,29.476797631848093
78,-74.56886778342171
79,-74.45828606822448
2,1, 7,21, 0, 2, 0.00,60.00,SummerDesignDay
7,18.244
8,3.25
9,3.25
49,0.0
53,29.137753843606436
77,29.262449360487977
78,-73.32563450076549
79,-73.64299872748121
2,1, 7,21, 0, 3, 0.00,60.00,SummerDesignDay
7,17.731
8,3.375
9,3.375
49,0.0
53,28.928198651974352
77,29.052710236805282
78,-72.06625070142886
79,-72.21344020881332
2,1, 7,21, 0, 4, 0.00,60.00,SummerDesignDay
7,17.275000000000002
8,1.125
9,1.125
49,0.0
53,28.718700137764703
77,28.844471191647
78,-72.54577307095748
79,-72.43140576897471
2,1, 7,21, 0, 5, 0.00,60.00,SummerDesignDay
7,16.913999999999998
8,1.875
9,1.875
49,0.0
53,28.510712864419716
77,28.63606759850576
78,-71.69446632538322
79,-71.91732732279694
2,1, 7,21, 0, 6, 0.00,60.00,SummerDesignDay
7,16.990000000000002
8,3.0
9,3.0
49,0.0
53,28.440077744616474
77,28.4837038354716
78,-7.005989778485402
79,-23.92778352825932
2,1, 7,21, 0, 7, 0.00,60.00,SummerDesignDay
7,17.769
8,3.0
9,3.0
49,0.0
53,28.718401614979662
77,28.628471175663556
78,83.03702964845985
79,80.34493710798016
2,1, 7,21, 0, 8, 0.00,60.00,SummerDesignDay
7,19.783
8,3.0
9,3.0
49,0.0
53,29.03086863361342
77,28.884859837826134
78,95.8059588600092
79,93.27779821505825
2,1, 7,21, 0, 9, 0.00,60.00,SummerDesignDay
7,22.557
8,3.0
9,3.0
49,0.0
53,29.390235209245162
77,29.20645874169112
78,128.47213579927882
79,124.02109303476757
2,1, 7,21, 0,10, 0.00,60.00,SummerDesignDay
7,25.255000000000003
8,2.375
9,2.375
49,0.0
53,29.786238227253683
77,29.59906130163733
78,137.68100705973404
79,138.2578260319711
2,1, 7,21, 0,11, 0.00,60.00,SummerDesignDay
7,27.649
8,0.75
9,0.75
49,0.0
53,30.149125015635875
77,29.981821022578412
78,124.94030570426479
79,127.07913415687403
2,1, 7,21, 0,12, 0.00,60.00,SummerDesignDay
7,29.454
8,0.0
9,0.0
49,0.0
53,30.44495731468374
77,30.309188853797604
78,99.5247237300028
79,103.14738815848438
2,1, 7,21, 0,13, 0.00,60.00,SummerDesignDay
7,30.784
8,0.0
9,0.0
49,0.0
53,30.717934548965328
77,30.58074300828064
78,98.3142655581451
79,95.18751920001935
2,1, 7,21, 0,14, 0.00,60.00,SummerDesignDay
7,31.715
8,0.0
9,0.0
49,0.0
53,31.022742345513272
77,30.888918522870743
78,106.31158880214753
79,107.85154935367106
2,1, 7,21, 0,15, 0.00,60.00,SummerDesignDay
7,32.0
8,0.0
9,0.0
49,0.0
53,31.247743853625057
77,31.162815149617572
78,78.5651641358292
79,83.07212499834719
2,1, 7,21, 0,16, 0.00,60.00,SummerDesignDay
7,31.43
8,0.0
9,0.0
49,0.0
53,31.344436056443
77,31.331823917607554
78,35.744450511171436
79,41.670066164561064
2,1, 7,21, 0,17, 0.00,60.00,SummerDesignDay
7,30.328
8,0.0
9,0.0
49,0.0
53,31.316571507289922
77,31.378574848222826
78,0.40373526046245
79,3.61463561284351
2,1, 7,21, 0,18, 0.00,60.00,SummerDesignDay
7,28.922
8,0.0
9,0.0
49,0.0
53,31.18555759155064
77,31.330327694829943
78,-41.07981253207291
79,-33.23884325743979
2,1, 7,21, 0,19, 0.00,60.00,SummerDesignDay
7,26.927
8,0.0
9,0.0
49,0.0
53,30.82281578516259
77,31.07115705722132
78,-147.38173209167292
79,-131.3090035006783
2,1, 7,21, 0,20, 0.00,60.00,SummerDesignDay
7,25.027
8,0.0
9,0.0
49,0.0
53,30.414198730145067
77,30.591347642419002
78,-140.40707739423652
79,-154.7166436786408
2,1, 7,21, 0,21, 0.00,60.00,SummerDesignDay
7,23.544999999999998
8,0.0
9,0.0
49,0.0
53,30.191059387912865
77,30.30594069269744
78,-74.40276340841665
79,-76.73131793126446
2,1, 7,21, 0,22, 0.00,60.00,SummerDesignDay
7,22.177
8,0.0
9,0.0
49,0.0
53,29.987718812456617
77,30.102043698780477
78,-70.07304095419617
79,-69.76148491626245
2,1, 7,21, 0,23, 0.00,60.00,SummerDesignDay
7,20.999000000000002
8,0.0
9,0.0
49,0.0
53,29.782034090740822
77,29.89860233306011
78,-70.23168830085567
79,-70.3230277639642
2,1, 7,21, 0,24, 0.00,60.00,SummerDesignDay
7,19.935000000000002
8,0.0
9,0.0
49,0.0
53,29.571160186540627
77,29.69242426888305
78,-72.78346203196836
79,-72.3396741760254
3,1, 7,21, 0,SummerDesignDay
54,29.84925565244932,28.000291936001172, 6,30,31.629852360688847,15,60
55,27.55114111970907,15.213767592603162, 5,60,47.71923389981407,13,45
56,0.9278605419291884,0.26712300833288505,17,45,1.137649840841517,13,60
57,9.779379839839601,9.648576325228317,16,30,10.072822338539847, 7,15
58,29.937515104493382,28.007379140095058, 6,15,31.424502144007086,16,30
59,30.184430227754174,15.393354847998564, 5,60,53.705837265650544, 9,45
60,0.9481470049857149,0.27647341757377825,17,30,1.2792733831627994, 9,60
61,11.6385867918059,11.426187994985808,12,15,11.97121364844298,19,45
62,29.787279876736577,28.007334011397067, 6,15,31.4245021440071,16,30
63,25.5964279541938,15.393354847998564, 5,60,35.734690097892134,14,60
64,0.7766757370231666,0.2374054962138083,18,45,1.0460092366888614, 6,15
65,11.649259530516476,11.47451163950109,19,15,12.222803141838705, 6,45
66,29.930074939906792,28.00526177997049, 6,30,32.29457208244938,16,60
67,30.0384791834243,15.393354847998564, 5,60,61.4586831718074,17,15
68,0.9459848924797584,0.29040349658828435, 9,45,1.2782089422345657,16,60
69,11.645136617095858,11.426214024405159,14,45,11.998030832762508, 7,15
70,29.9217088781572,28.93851111352959, 7,60,30.88246994943505,19,15
71,29.92168537753338,28.93851111352959, 8,15,30.88246994943505,19,30
72,0.8813524107936944,0.17975083528171773, 9,15,1.2684420175740299, 6,30
73,29.988572438030833,28.14508415689332, 6,30,31.75619186935535,15,60
74,32.36481161517375,12.877060340975943, 5,60,61.86108194383041,13,45
75,0.8149178082948397,0.22079571417204372,18,30,1.1143770060880187,20,15
76,13.389164342746795,13.087087052982955,17,45,14.020434602790573,19,45
10,0.0,0, 1,15,0, 1,15
11,9.,9, 1,15,9, 1,15
4,1, 7
50,-30412800.0,-316800.0,21, 1,15,-316800.0,21, 1,15
51,30412800.0,316800.0,21, 1,15,316800.0,21, 1,15
52,0.0,0.0,21, 1,15,0.0,21, 1,15
1,DENVER CENTENNIAL  GOLDEN   N ANN HTG 99% CONDNS DB,  37.62,-122.40,  -8.00,   2.00
2,1,12,21, 0, 1, 0.00,60.00,WinterDesignDay
7,-15.5
8,1.25
9,1.25
49,0.0
53,-18.529822751938667
77,-18.532150527742516
78,-0.038771215793477865
79,-0.038827316235824694
2,1,12,21, 0, 2, 0.00,60.00,WinterDesignDay
7,-15.5
8,3.25
9,3.25
49,0.0
53,-18.529918025686086
77,-18.532244329425776
78,-0.03832546412051174
79,-0.03838092033889055
2,1,12,21, 0, 3, 0.00,60.00,WinterDesignDay
7,-15.5
8,3.375
9,3.375
49,0.0
53,-18.530012203147713
77,-18.5323370526316
78,-0.03788483073443771
79,-0.03793965012322577
2,1,12,21, 0, 4, 0.00,60.00,WinterDesignDay
7,-15.5
8,1.125
9,1.125
49,0.0
53,-18.530105296934924
77,-18.532428709744476
78,-0.037449257050708784
79,-0.03750344688380684
2,1,12,21, 0, 5, 0.00,60.00,WinterDesignDay
7,-15.5
8,1.875
9,1.875
49,0.0
53,-18.5301973195141
77,-18.53251931300709
78,-0.03701868514375395
79,-0.037072252638140624
2,1,12,21, 0, 6, 0.00,60.00,WinterDesignDay
7,-15.5
8,3.0
9,3.0
49,0.0
53,-18.530288283208296
77,-18.532608874521962
78,-0.03659305773795074
79,-0.0366460100281436
2,1,12,21, 0, 7, 0.00,60.00,WinterDesignDay
7,-15.5
8,3.0
9,3.0
49,0.0
53,-18.530378200198886
77,-18.532697406253007
78,-0.03617231822587197
79,-0.03622466234761564
2,1,12,21, 0, 8, 0.00,60.00,WinterDesignDay
7,-15.5
8,3.0
9,3.0
49,0.0
53,-18.530467082527178
77,-18.53278492002711
78,-0.03575641063050394
79,-0.03580815354822178
2,1,12,21, 0, 9, 0.00,60.00,WinterDesignDay
7,-15.5
8,3.0
9,3.0
49,0.0
53,-18.530554942096053
77,-18.532871427535746
78,-0.03534527961072742
79,-0.0353964282225723
2,1,12,21, 0,10, 0.00,60.00,WinterDesignDay
7,-15.5
8,2.375
9,2.375
49,0.0
53,-18.53064179067151
77,-18.53295694033641
78,-0.03493887045964161
79,-0.034989431564672116
2,1,12,21, 0,11, 0.00,60.00,WinterDesignDay
7,-15.5
8,0.75
9,0.75
49,0.0
53,-18.53072763988429
77,-18.533041469854247
78,-0.03453712909051854
79,-0.03458710942900881
2,1,12,21, 0,12, 0.00,60.00,WinterDesignDay
7,-15.5
8,0.0
9,0.0
49,0.0
53,-18.530812501231388
77,-18.533125027383498
78,-0.03414000203445866
79,-0.03418940825427941
2,1,12,21, 0,13, 0.00,60.00,WinterDesignDay
7,-15.5
8,0.0
9,0.0
49,0.0
53,-18.53089638607759
77,-18.53320762408899
78,-0.03374743642995037
79,-0.033796275103163784
2,1,12,21, 0,14, 0.00,60.00,WinterDesignDay
7,-15.5
8,0.0
9,0.0
49,0.0
53,-18.530979305657034
77,-18.533289271007654
78,-0.03335938001772609
79,-0.03340765765603762
2,1,12,21, 0,15, 0.00,60.00,WinterDesignDay
7,-15.5
8,0.0
9,0.0
49,0.0
53,-18.53106127107467
77,-18.533369979049947
78,-0.03297578112691646
79,-0.03302350415939212
2,1,12,21, 0,16, 0.00,60.00,WinterDesignDay
7,-15.5
8,0.0
9,0.0
49,0.0
53,-18.53114229330773
77,-18.533449759001286
78,-0.032596588678237115
79,-0.032643763467220296
2,1,12,21, 0,17, 0.00,60.00,WinterDesignDay
7,-15.5
8,0.0
9,0.0
49,0.0
53,-18.531222383207258
77,-18.53352862152348
78,-0.03222175218223722
79,-0.032268385001747335
2,1,12,21, 0,18, 0.00,60.00,WinterDesignDay
7,-15.5
8,0.0
9,0.0
49,0.0
53,-18.53130155149949
77,-18.533606577156142
78,-0.03185122171710386
79,-0.03189731877917641
2,1,12,21, 0,19, 0.00,60.00,WinterDesignDay
7,-15.5
8,0.0
9,0.0
49,0.0
53,-18.53137980878732
77,-18.53368363631807
78,-0.0314849479355086
79,-0.0315305153729437
2,1,12,21, 0,20, 0.00,60.00,WinterDesignDay
7,-15.5
8,0.0
9,0.0
49,0.0
53,-18.531457165551732
77,-18.533759809308684
78,-0.031122882037503352
79,-0.031167925944523833
2,1,12,21, 0,21, 0.00,60.00,WinterDesignDay
7,-15.5
8,0.0
9,0.0
49,0.0
53,-18.531533632153184
77,-18.533835106309297
78,-0.030764975791508054
79,-0.030809502151950705
2,1,12,21, 0,22, 0.00,60.00,WinterDesignDay
7,-15.5
8,0.0
9,0.0
49,0.0
53,-18.53160921883297
77,-18.53390953738448
78,-0.030411181522044473
79,-0.0304551962751219
2,1,12,21, 0,23, 0.00,60.00,WinterDesignDay
7,-15.5
8,0.0
9,0.0
49,0.0
53,-18.531683935714625
77,-18.533983112483476
78,-0.030061452077740913
79,-0.030104961096933926
2,1,12,21, 0,24, 0.00,60.00,WinterDesignDay
7,-15.5
8,0.0
9,0.0
49,0.0
53,-18.531757792805262
77,-18.53405584144141
78,-0.029715740863360818
79,-0.029758749943686075
3,1,12,21, 0,WinterDesignDay
54,-18.47523315911679,-18.47614066888996,24,60,-18.474239589561375, 1,15
55,-17.459403160893114,-17.459423861264316,24,60,-17.45938049755331, 1,15
56,0.5067038829808955,0.50660192786091, 1,15,0.5067971339628954,24,60
57,7.151579413326002,7.151578738573059,24,60,7.1515801520754065, 1,15
58,-18.47523315911679,-18.47614066888996,24,60,-18.474239589561375, 1,15
59,-17.459403160893114,-17.459423861264316,24,60,-17.45938049755331, 1,15
60,0.5067038829808955,0.50660192786091, 1,15,0.5067971339628954,24,60
61,7.151579413326002,7.151578738573059,24,60,7.1515801520754065, 1,15
62,-18.472655476088704,-18.47356301148709,24,60,-18.471661878579166, 1,15
63,-17.41259660389538,-17.41261682715959,24,60,-17.412574462904548, 1,15
64,0.5141131713074761,0.5140142137461853, 1,15,0.5142036814903282,24,60
65,7.41660988157713,7.416609090749368,24,60,7.4166107474088445, 1,15
66,-18.472655476088704,-18.47356301148709,24,60,-18.471661878579166, 1,15
67,-17.41259660389538,-17.41261682715959,24,60,-17.412574462904548, 1,15
68,0.5141131713074761,0.5140142137461853, 1,15,0.5142036814903282,24,60
69,7.41660988157713,7.416609090749368,24,60,7.4166107474088445, 1,15
70,-18.53634498329999,-18.53737859308429,24,60,-18.535213326601475, 1,15
71,-18.53632215649795,-18.537358761840974,24,60,-18.535187220088428, 1,15
72,0.11196330194468167,0.11074627436287643, 1,15,0.11305896513326592,24,60
73,-18.593581939804444,-18.594512167095644,24,60,-18.592563496698954, 1,15
74,-20.310537567330876,-20.310551538924045,24,60,-20.310522270753335, 1,15
75,0.5965214405074115,0.5964911968218022,24,60,0.5965543583238799, 1,15
76,8.618756796230022,8.618756430253175,24,60,8.618757196914814, 1,15
10,0.0,0, 1,15,0, 1,15
11,10.,10, 1,15,10, 1,15
4,1,12
50,-30412800.0,-316800.0,21, 1,15,-316800.0,21, 1,15
51,30412800.0,316800.0,21, 1,15,316800.0,21, 1,15
52,0.0,0.0,21, 1,15,0.0,21, 1,15
1,RUN PERIOD 1,  37.62,-122.40,  -8.00,   2.00
2,1, 1, 1, 0, 1, 0.00,60.00,Tuesday
7,7.0125
8,1.25
9,1.25
49,0.0
53,12.016521606091942
77,12.12755619646732
78,-65.74223443866724
79,-62.29431194020549
2,1, 1, 1, 0, 2, 0.00,60.00,Tuesday
7,7.2
8,3.25
9,3.25
49,0.0
53,11.935780789760603
77,11.993830326637763
78,-20.37464113505289
79,-29.748921972126034
2,1, 1, 1, 0, 3, 0.00,60.00,Tuesday
7,6.8875
8,3.375
9,3.375
49,0.0
53,11.857791308658234
77,11.936623928723161
78,-35.59642352600412
79,-29.783487102680397
2,1, 1, 1, 0, 4, 0.00,60.00,Tuesday
7,6.324999999999999
8,1.125
9,1.125
49,0.0
53,11.685521613968046
77,11.797784388054975
78,-67.03360435185398
79,-63.25438656403958
2,1, 1, 1, 0, 5, 0.00,60.00,Tuesday
7,5.0375
8,1.875
9,1.875
49,0.0
53,11.524757009859782
77,11.623935818333603
78,-55.18048625118698
79,-58.59228998979931
2,1, 1, 1, 0, 6, 0.00,60.00,Tuesday
7,4.4
8,3.0
9,3.0
49,0.0
53,11.374688358730006
77,11.477695701542576
78,-56.25555943615466
79,-55.31179719383849
2,1, 1, 1, 0, 7, 0.00,60.00,Tuesday
7,5.4624999999999995
8,3.0
9,3.0
49,0.0
53,11.221742578088575
77,11.325268320906433
78,-57.27844606065873
79,-57.177213129382395
2,1, 1, 1, 0, 8, 0.00,60.00,Tuesday
7,5.4125
8,3.0
9,3.0
49,0.0
53,11.29074890812813
77,11.241948136662637
78,48.018290819509396
79,17.467388486046843
2,1, 1, 1, 0, 9, 0.00,60.00,Tuesday
7,6.750000000000001
8,3.0
9,3.0
49,0.0
53,12.090468156404778
77,11.737359158497219
78,286.94174639304447
79,269.0786071884722
2,1, 1, 1, 0,10, 0.00,60.00,Tuesday
7,8.487499999999999
8,2.375
9,2.375
49,0.0
53,12.794254379467658
77,12.544281765090291
78,277.93904002787224
79,289.14221000325927
2,1, 1, 1, 0,11, 0.00,60.00,Tuesday
7,9.2125
8,0.75
9,0.75
49,0.0
53,13.181391538933296
77,13.114701516447399
78,130.01570587077688
79,152.34700176602223
2,1, 1, 1, 0,12, 0.00,60.00,Tuesday
7,9.775
8,0.0
9,0.0
49,0.0
53,13.332486157778995
77,13.324991512429744
78,53.56753666424124
79,53.87780277176008
2,1, 1, 1, 0,13, 0.00,60.00,Tuesday
7,10.375
8,0.0
9,0.0
49,0.0
53,13.52314886250344
77,13.480498289487665
78,73.29790177629467
79,67.29931161912693
2,1, 1, 1, 0,14, 0.00,60.00,Tuesday
7,10.9125
8,0.0
9,0.0
49,0.0
53,13.915374997522807
77,13.790085871279327
78,153.10941369778476
79,144.09916606697618
2,1, 1, 1, 0,15, 0.00,60.00,Tuesday
7,12.85
8,0.0
9,0.0
49,0.0
53,14.254455763228481
77,14.209825424870726
78,122.56300313239771
79,137.1175637544967
2,1, 1, 1, 0,16, 0.00,60.00,Tuesday
7,13.9
8,0.0
9,0.0
49,0.0
53,13.97634758990249
77,14.252946444678557
78,-117.57479475780221
79,-79.76901910682601
2,1, 1, 1, 0,17, 0.00,60.00,Tuesday
7,12.15
8,0.0
9,0.0
49,0.0
53,13.283874009124393
77,13.658623535344507
78,-254.20736690965003
79,-260.87750371083774
2,1, 1, 1, 0,18, 0.00,60.00,Tuesday
7,11.1
8,0.0
9,0.0
49,0.0
53,12.990938995531064
77,13.149176759881367
78,-119.05306645662984
79,-133.48828691994555
2,1, 1, 1, 0,19, 0.00,60.00,Tuesday
7,10.7875
8,0.0
9,0.0
49,0.0
53,12.824233817015443
77,12.919411626273913
78,-61.2242169971918
79,-65.26987383350938
2,1, 1, 1, 0,20, 0.00,60.00,Tuesday
7,10.6
8,0.0
9,0.0
49,0.0
53,12.73700002637634
77,12.797883436063097
78,-29.760973009271822
79,-33.459107133410676
2,1, 1, 1, 0,21, 0.00,60.00,Tuesday
7,9.5375
8,0.0
9,0.0
49,0.0
53,12.611080217500053
77,12.701666781145512
78,-50.606173821548836
79,-45.28683144576203
2,1, 1, 1, 0,22, 0.00,60.00,Tuesday
7,9.2125
8,0.0
9,0.0
49,0.0
53,12.4950919334143
77,12.568508691976932
78,-38.392813134447806
79,-42.815253900388754
2,1, 1, 1, 0,23, 0.00,60.00,Tuesday
7,8.4
8,0.0
9,0.0
49,0.0
53,12.342754388736182
77,12.447480350006595
78,-61.4077803323125
79,-55.39287340094053
2,1, 1, 1, 0,24, 0.00,60.00,Tuesday
7,7.1125
8,0.0
9,0.0
49,0.0
53,12.183134364739827
77,12.278866608297108
78,-54.66401782387585
79,-58.16782351139046
3,1, 1, 1, 0,Tuesday
54,12.83322293688674,10.840621848659962, 8,15,15.697515418347846,15,30
55,20.41115685227441,2.7572905417321967, 6,60,56.87183562251157,15,30
56,1.060248910685018,0.5957079941516308,17,15,1.517850982787623,11,15
57,5.010885874201873,1.599909401900926, 8,45,7.695029695057906, 5,60
58,12.581175079677337,10.840451423156358, 8,15,14.382700569255345,15,60
59,13.309344496653495,2.756999257968033, 6,60,45.354239267283525,10,30
60,0.9215328581858286,0.4175863210637751, 8,45,1.451162842804292,10,15
61,4.7311699159490965,1.744492390720631, 8,15,7.4861252397024,17,30
62,12.42179341990139,10.840451976039748, 8,15,14.382700569256196,15,60
63,8.962403330996745,2.813137864801578, 6,60,18.695488227579887,15,45
64,0.8098712951860106,0.2566891083286356, 9,30,1.0170923699179224,17,45
65,4.420583673434748,1.0011000016408669, 9,30,7.849094135890917,17,30
66,12.528500199421506,10.840610665652699, 8,15,15.40989162179853,15,60
67,11.85572758641773,2.7572905417321967, 6,60,46.60363929582397,15,60
68,0.8713111481213035,0.25668913335755794, 9,30,1.3801768966982946,15,45
69,4.588064998855246,1.0010999816031285, 9,30,7.8255604029100745,16,60
70,12.554441421601615,11.663950684524568, 8,60,13.344743385037972,17,15
71,12.554462249574852,11.663950684524568, 9,15,13.344743385037972,17,30
72,0.9314287472896675,0.33821643700335335, 9,60,1.1899993138159928, 8,30
73,12.52862940382761,10.845097686585213, 8,15,14.6508245879239,15,30
74,10.689838635355327,-2.93832808544055, 8,30,34.85073411157754,14,45
75,0.8711312212724668,0.33118170496514,16,30,1.206541340303985,17,45
76,5.214521507254911,1.1586659314515455, 9,15,8.986799465279402,17,30
10,0.0,0, 1,15,0, 1,15
11,3.,3, 1,15,3, 1,15
2,2, 1, 2, 0, 1, 0.00,60.00,Wednesday
7,8.075000000000001
8,0.0
9,0.0
49,0.0
53,12.119932577360608
77,12.17484985696919
78,-19.061447769817647
79,-24.466598559411516
2,2, 1, 2, 0, 2, 0.00,60.00,Wednesday
7,7.15
8,1.25
9,0.625
49,0.0
53,11.904903525383197
77,12.05172245268078
78,-96.46639638651395
79,-79.66116655725688
2,2, 1, 2, 0, 3, 0.00,60.00,Wednesday
7,5.7875
8,1.375
9,1.0
49,0.0
53,11.647977435213068
77,11.775226481954032
78,-83.48528695931401
79,-92.62817304322756
2,2, 1, 2, 0, 4, 0.00,60.00,Wednesday
7,4.5375
8,2.25
9,2.25
49,0.0
53,11.434733863871983
77,11.565740380655066
78,-79.81319588327784
79,-77.76071979830229
2,2, 1, 2, 0, 5, 0.00,60.00,Wednesday
7,4.9624999999999995
8,1.125
9,1.125
49,0.0
53,11.324152811335896
77,11.401815624561833
78,-30.152293527737527
79,-39.89067579286099
2,2, 1, 2, 0, 6, 0.00,60.00,Wednesday
7,6.6
8,0.0
9,0.0
49,0.0
53,11.338338312697468
77,11.376069599959896
78,3.2429411149323286
79,1.497901945406523
2,2, 1, 2, 0, 7, 0.00,60.00,Wednesday
7,7.575
8,0.0
9,0.0
49,0.0
53,11.338704381323163
77,11.379588605081752
78,-5.364434335914904
79,-3.007201385472004
2,2, 1, 2, 0, 8, 0.00,60.00,Wednesday
7,7.425
8,0.0
9,0.0
49,0.0
53,11.381660382773024
77,11.371348514988451
78,16.865696735765592
79,8.31869300291859
2,2, 1, 2, 0, 9, 0.00,60.00,Wednesday
7,9.325000000000001
8,0.0
9,0.0
49,0.0
53,11.77760618279714
77,11.569506093442154
78,129.03552084024642
79,115.7984844833515
2,2, 1, 2, 0,10, 0.00,60.00,Wednesday
7,11.287499999999998
8,0.0
9,0.0
49,0.0
53,12.217435120230101
77,12.005111498482071
78,174.91066404247198
79,175.6708623796399
2,2, 1, 2, 0,11, 0.00,60.00,Wednesday
7,13.075
8,0.625
9,0.0
49,0.0
53,12.650970321470677
77,12.459080843810945
78,176.27616110343573
79,169.82672077517924
2,2, 1, 2, 0,12, 0.00,60.00,Wednesday
7,13.9
8,1.625
9,0.625
49,0.0
53,13.038685973076129
77,12.925914657280245
78,138.39687715783796
79,153.4620271412982
2,2, 1, 2, 0,13, 0.00,60.00,Wednesday
7,13.9
8,2.0
9,1.0
49,0.0
53,13.513569084079316
77,13.329176569039465
78,195.67957674096357
79,177.674960041051
2,2, 1, 2, 0,14, 0.00,60.00,Wednesday
7,13.9
8,2.0
9,1.0
49,0.0
53,13.727925205515602
77,13.727352755695248
78,59.01416315570002
79,85.86806134732637
2,2, 1, 2, 0,15, 0.00,60.00,Wednesday
7,12.837499999999999
8,2.0
9,1.0
49,0.0
53,13.751223636477603
77,13.813595175621113
78,17.248814434102172
79,19.547884390808797
2,2, 1, 2, 0,16, 0.00,60.00,Wednesday
7,12.575
8,1.375
9,1.0
49,0.0
53,13.545885680155083
77,13.760888748256464
78,-80.99391950840969
79,-59.651356496732596
2,2, 1, 2, 0,17, 0.00,60.00,Wednesday
7,11.7375
8,1.0
9,0.375
49,0.0
53,12.971630678460892
77,13.298306488462549
78,-213.15342671517948
79,-214.91420297074083
2,2, 1, 2, 0,18, 0.00,60.00,Wednesday
7,10.7875
8,2.25
9,1.25
49,0.0
53,12.674067052916968
77,12.846311562834916
78,-127.58752643397807
79,-132.64081444703666
2,2, 1, 2, 0,19, 0.00,60.00,Wednesday
7,11.287499999999998
8,1.125
9,0.75
49,0.0
53,12.478235896721312
77,12.57449879899061
78,-65.85823556928905
79,-76.02234320865637
2,2, 1, 2, 0,20, 0.00,60.00,Wednesday
7,11.7
8,0.0
9,0.0
49,0.0
53,12.42880564870608
77,12.469196365472612
78,-14.488292630999743
79,-20.015109482670212
2,2, 1, 2, 0,21, 0.00,60.00,Wednesday
7,10.6375
8,0.0
9,0.0
49,0.0
53,12.344583883715035
77,12.418760040724607
78,-37.07056955996468
79,-30.03776192678332
2,2, 1, 2, 0,22, 0.00,60.00,Wednesday
7,9.3125
8,0.0
9,0.0
49,0.0
53,12.13580165042552
77,12.257853171380711
78,-80.30582470195125
79,-75.56674549102321
2,2, 1, 2, 0,23, 0.00,60.00,Wednesday
7,9.2125
8,0.0
9,0.0
49,0.0
53,11.97219930856426
77,12.0623080331317
78,-52.52025416326249
79,-59.217541023559626
2,2, 1, 2, 0,24, 0.00,60.00,Wednesday
7,9.0875
8,0.0
9,0.0
49,0.0
53,11.839558740235463
77,11.93204407052654
78,-50.67584775414163
79,-48.79296477470991
3,2, 1, 2, 0,Wednesday
54,12.512197283036096,11.01163663151523, 4,60,15.195959911533562,13,60
55,17.89147424133846,1.2286073307680532, 4,60,59.181520769970405,13,45
56,1.0072448396873044,0.3229191302045157, 8,60,1.5717101782331726,13,45
57,6.0306486325256685,1.6629170033629683, 2,60,14.15131241130351, 9,60
58,12.286935737120851,11.011636631661542, 4,60,13.941590864274671,14,15
59,11.602388204418409,1.2286073326939002, 4,60,29.963378558274417,10,30
60,0.8873790321253519,0.2516070822387524,15,60,1.2275206130227796,10,45
61,5.7771609067693435,1.7216434281014374, 2,60,14.132170222416251, 9,60
62,12.202794922156057,11.007641105621847, 5,30,13.94158840216344,14,15
63,9.363957985213135,1.2286073326939086, 4,60,21.338680890061447,13,60
64,0.8243582902967851,0.2516070822400141,15,60,1.020593451670019, 5,15
65,5.436553615417805,1.7216434315413516, 2,60,11.727977010399872, 9,60
66,12.29261111368625,11.007641105620541, 5,30,14.601643967654843,15,30
67,11.73820048872715,1.2286073307680532, 4,60,37.07461351776457,15,60
68,0.8835752702652804,0.42883195302237326, 9,30,1.2111892294351376,15,45
69,5.586235468597632,1.662917005300389, 2,60,11.727977010399872, 9,60
70,12.364115115503703,11.644309847739125, 8,60,13.040950405829141,16,60
71,12.367577333349779,11.644309847739125, 9,15,13.040950405829141,17,15
72,0.9196080586803802,0.20219917059274348,10,15,1.2670629032855183, 5,30
73,12.255334814830602,11.040427779492614, 5,15,14.225426843919827,13,60
74,9.12609239778898,-4.78211932256948, 4,60,39.30684131612656,13,45
75,0.860686633831017,0.23231486528356154,16,30,1.1721429615595707, 3,15
76,6.61584976061986,1.4588215576353178,18,60,16.76933748900649, 9,45
10,0.0,0, 1,15,0, 1,15
11,4.,4, 1,15,4, 1,15
2,3, 1, 3, 0, 1, 0.00,60.00,Thursday
7,9.2125
8,0.0
9,0.0
49,0.0
53,11.823883592225183
77,11.851799410291344
78,1.4854754513472415
79,-7.854435540014649
2,3, 1, 3, 0, 2, 0.00,60.00,Thursday
7,9.775
8,0.0
9,0.0
49,0.0
53,11.869792033521808
77,11.881915618970451
78,10.819291122085003
79,12.466061463635638
2,3, 1, 3, 0, 3, 0.00,60.00,Thursday
7,11.375
8,0.0
9,0.0
49,0.0
53,11.865569421640133
77,11.8945163037377
78,-5.683290836095875
79,-2.135903654805902
2,3, 1, 3, 0, 4, 0.00,60.00,Thursday
7,13.2625
8,0.0
9,0.0
49,0.0
53,11.991187597558572
77,11.920953044637495
78,35.23106359711172
79,26.829973482655898
2,3, 1, 3, 0, 5, 0.00,60.00,Thursday
7,13.212500000000002
8,0.0
9,0.0
49,0.0
53,12.039895807299956
77,12.004580271231694
78,16.274328243096143
79,21.757411227124724
2,3, 1, 3, 0, 6, 0.00,60.00,Thursday
7,12.425
8,0.0
9,0.0
49,0.0
53,11.994417686388708
77,12.013923391675585
78,-6.530093502404085
79,-4.62337490791537
2,3, 1, 3, 0, 7, 0.00,60.00,Thursday
7,11.5125
8,0.0
9,0.0
49,0.0
53,11.925353624147082
77,11.973624104669721
78,-22.976108900907278
79,-20.988863430882354
2,3, 1, 3, 0, 8, 0.00,60.00,Thursday
7,11.1
8,0.0
9,0.0
49,0.0
53,11.93843378770341
77,11.92618374195559
78,4.227284362163697
79,-4.721861953625722
2,3, 1, 3, 0, 9, 0.00,60.00,Thursday
7,11.474999999999998
8,0.0
9,0.0
49,0.0
53,12.257380160759233
77,12.074458223368566
78,114.14259018594979
79,98.06247028976449
2,3, 1, 3, 0,10, 0.00,60.00,Thursday
7,12.7
8,0.0
9,0.0
49,0.0
53,12.77548049690613
77,12.533401593385484
78,211.39150204562807
79,204.101129656473
2,3, 1, 3, 0,11, 0.00,60.00,Thursday
7,12.6125
8,0.0
9,0.0
49,0.0
53,13.082522287535436
77,13.009127957380453
78,106.0835555191136
79,129.68575142401434
2,3, 1, 3, 0,12, 0.00,60.00,Thursday
7,13.95
8,0.625
9,0.625
49,0.0
53,13.364789220677373
77,13.244679383596246
78,115.86203173002636
79,98.9057826393101
2,3, 1, 3, 0,13, 0.00,60.00,Thursday
7,15.375000000000002
8,2.25
9,1.625
49,0.0
53,13.780315011460047
77,13.640486324702149
78,155.04507042226857
79,157.60289349439813
2,3, 1, 3, 0,14, 0.00,60.00,Thursday
7,15.912500000000001
8,2.375
9,1.375
49,0.0
53,14.216734200584293
77,14.087352807862565
78,163.53272642312146
79,166.0580207502888
2,3, 1, 3, 0,15, 0.00,60.00,Thursday
7,16.1
8,1.375
9,1.0
49,0.0
53,14.2658410094816
77,14.339090523824359
78,6.467867863642615
79,29.174127337249974
2,3, 1, 3, 0,16, 0.00,60.00,Thursday
7,14.725
8,1.625
9,1.0
49,0.0
53,13.948692042786117
77,14.199194006375581
78,-114.2785568189872
79,-95.92690011343001
2,3, 1, 3, 0,17, 0.00,60.00,Thursday
7,13.9
8,2.0
9,1.625
49,0.0
53,13.34760481672129
77,13.68364109791041
78,-226.36024287517034
79,-228.2516456380736
2,3, 1, 3, 0,18, 0.00,60.00,Thursday
7,13.212500000000002
8,1.375
9,1.375
49,0.0
53,13.153269104733985
77,13.255890318476672
78,-76.14791082495273
79,-95.72519566504461
2,3, 1, 3, 0,19, 0.00,60.00,Thursday
7,12.425
8,1.0
9,1.0
49,0.0
53,13.05203291156804
77,13.126456650234594