Program Version,EnergyPlus, Version 9.6.0-f420c06a69, YMD=2022.05.12 06:24
1,5,Environment Title[],Latitude[deg],Longitude[deg],Time Zone[],Elevation[m]
2,8,Day of Simulation[],Month[],Day of Month[],DST Indicator[1=yes 0=no],Hour[],StartMinute[],EndMinute[],DayType
3,5,Cumulative Day of Simulation[],Month[],Day of Month[],DST Indicator[1=yes 0=no],DayType  ! When Daily Report Variables Requested
4,2,Cumulative Days of Simulation[],Month[]  ! When Monthly Report Variables Requested
5,1,Cumulative Days of Simulation[] ! When Run Period Report Variables Requested
6,1,Calendar Year of Simulation[] ! When Annual Report Variables Requested
7,1,Environment,Site Outdoor Air Drybulb Temperature [C] !Hourly
8,1,Environment,Site Total Sky Cover [] !Hourly
9,1,Environment,Site Opaque Sky Cover [] !Hourly
10,7,Environment,Site Daylight Saving Time Status [] !Daily [Value,Min,Hour,Minute,Max,Hour,Minute]
11,7,Environment,Site Day Type Index [] !Daily [Value,Min,Hour,Minute,Max,Hour,Minute]
49,1,ZONE ONE,Zone Total Internal Latent Gain Energy [J] !Hourly
50,9,TEST 352 MINUS,Other Equipment Total Heating Energy [J] !Monthly [Value,Min,Day,Hour,Minute,Max,Day,Hour,Minute]
51,9,TEST 352A,Other Equipment Total Heating Energy [J] !Monthly [Value,Min,Day,Hour,Minute,Max,Day,Hour,Minute]
52,9,ZONE ONE,Zone Other Equipment Total Heating Energy [J] !Monthly [Value,Min,Day,Hour,Minute,Max,Day,Hour,Minute]
53,1,ZONE ONE,Zone Mean Radiant Temperature [C] !Hourly
54,7,ZN001:WALL001,Surface Inside Face Temperature [C] !Daily [Value,Min,Hour,Minute,Max,Hour,Minute]
55,7,ZN001:WALL001,Surface Outside Face Temperature [C] !Daily [Value,Min,Hour,Minute,Max,Hour,Minute]
56,7,ZN001:WALL001,Surface Inside Face Convection Heat Transfer Coefficient [W/m2-K] !Daily [Value,Min,Hour,Minute,Max,Hour,Minute]
57,7,ZN001:WALL001,Surface Outside Face Convection Heat Transfer Coefficient [W/m2-K] !Daily [Value,Min,Hour,Minute,Max,Hour,Minute]
58,7,ZN001:WALL002,Surface Inside Face Temperature [C] !Daily [Value,Min,Hour,Minute,Max,Hour,Minute]
59,7,ZN001:WALL002,Surface Outside Face Temperature [C] !Daily [Value,Min,Hour,Minute,Max,Hour,Minute]
60,7,ZN001:WALL002,Surface Inside Face Convection Heat Transfer Coefficient [W/m2-K] !Daily [Value,Min,Hour,Minute,Max,Hour,Minute]
61,7,ZN001:WALL002,Surface Outside Face Convection Heat Transfer Coefficient [W/m2-K] !Daily [Value,Min,Hour,Minute,Max,Hour,Minute]
62,7,ZN001:WALL003,Surface Inside Face Temperature [C] !Daily [Value,Min,Hour,Minute,Max,Hour,Minute]
63,7,ZN001:WALL003,Surface Outside Face Temperature [C] !Daily [Value,Min,Hour,Minute,Max,Hour,Minute]
64,7,ZN001:WALL003,Surface Inside Face Convection Heat Transfer Coefficient [W/m2-K] !Daily [Value,Min,Hour,Minute,Max,Hour,Minute]
65,7,ZN001:WALL003,Surface Outside Face Convection Heat Transfer Coefficient [W/m2-K] !Daily [Value,Min,Hour,Minute,Max,Hour,Minute]
66,7,ZN001:WALL004,Surface Inside Face Temperature [C] !Daily [Value,Min,Hour,Minute,Max,Hour,Minute]
67,7,ZN001:WALL004,Surface Outside Face Temperature [C] !Daily [Value,Min,Hour,Minute,Max,Hour,Minute]
68,7,ZN001:WALL004,Surface Inside Face Convection Heat Transfer Coefficient [W/m2-K] !Daily [Value,Min,Hour,Minute,Max,Hour,Minute]
69,7,ZN001:WALL004,Surface Outside Face Convection Heat Transfer Coefficient [W/m2-K] !Daily [Value,Min,Hour,Minute,Max,Hour,Minute]
70,7,ZN001:FLR001,Surface Inside Face Temperature [C] !Daily [Value,Min,Hour,Minute,Max,Hour,Minute]
71,7,ZN001:FLR001,Surface Outside Face Temperature [C] !Daily [Value,Min,Hour,Minute,Max,Hour,Minute]
72,7,ZN001:FLR001,Surface Inside Face Convection Heat Transfer Coefficient [W/m2-K] !Daily [Value,Min,Hour,Minute,Max,Hour,Minute]
73,7,ZN001:ROOF001,Surface Inside Face Temperature [C] !Daily [Value,Min,Hour,Minute,Max,Hour,Minute]
74,7,ZN001:ROOF001,Surface Outside Face Temperature [C] !Daily [Value,Min,Hour,Minute,Max,Hour,Minute]
75,7,ZN001:ROOF001,Surface Inside Face Convection Heat Transfer Coefficient [W/m2-K] !Daily [Value,Min,Hour,Minute,Max,Hour,Minute]
76,7,ZN001:ROOF001,Surface Outside Face Convection Heat Transfer Coefficient [W/m2-K] !Daily [Value,Min,Hour,Minute,Max,Hour,Minute]
77,1,ZONE ONE,Zone Mean Air Temperature [C] !Hourly
78,1,ZONE ONE,Zone Air Heat Balance Surface Convection Rate [W] !Hourly
79,1,ZONE ONE,Zone Air Heat Balance Air Energy Storage Rate [W] !Hourly
End of Data Dictionary
1,DENVER CENTENNIAL  GOLDEN   N ANN CLG 1% CONDNS DB=>MWB,  37.62,-122.40,  -8.00,   2.00
2,1, 7,21, 0, 1, 0.00,60.00,SummerDesignDay
7,18.966
8,1.25
9,1.25
49,0.0
53,28.216788385536233
77,28.40259327905194
78,-124.3043884012338
79,-124.27702723657168
2,1, 7,21, 0, 2, 0.00,60.00,SummerDesignDay
7,18.244
8,3.25
9,3.25
49,0.0
53,27.86432553873012
77,28.04880159399718
78,-120.63004552807962
79,-121.39645290139576
2,1, 7,21, 0, 3, 0.00,60.00,SummerDesignDay
7,17.731
8,3.375
9,3.375
49,0.0
53,27.524034747819492
77,27.70703715434507
78,-117.28935850033025
79,-117.70428512102978
2,1, 7,21, 0, 4, 0.00,60.00,SummerDesignDay
7,17.275000000000002
8,1.125
9,1.125
49,0.0
53,27.186970062861697
77,27.37085312132923
78,-117.28618571127949
79,-117.2074771146135
2,1, 7,21, 0, 5, 0.00,60.00,SummerDesignDay
7,16.913999999999998
8,1.875
9,1.875
49,0.0
53,26.855688909322012
77,27.03750485187261
78,-114.51172793993155
79,-115.08317884348475
2,1, 7,21, 0, 6, 0.00,60.00,SummerDesignDay
7,16.990000000000002
8,3.0
9,3.0
49,0.0
53,26.806288166344505
77,26.827757220412195
78,23.32225825873674
79,-11.24785346163005
2,1, 7,21, 0, 7, 0.00,60.00,SummerDesignDay
7,17.769
8,3.0
9,3.0
49,0.0
53,27.378318387205397
77,27.200835478453918
78,179.6221066506768
79,178.80241166303531
2,1, 7,21, 0, 8, 0.00,60.00,SummerDesignDay
7,19.783
8,3.0
9,3.0
49,0.0
53,27.87477030131284
77,27.717460226910962
78,187.21999962878627
79,183.32572573231295
2,1, 7,21, 0, 9, 0.00,60.00,SummerDesignDay
7,22.557
8,3.0
9,3.0
49,0.0
53,28.43075435270578
77,28.28489991331216
78,207.9644267697739
79,205.0964248160614
2,1, 7,21, 0,10, 0.00,60.00,SummerDesignDay
7,25.255000000000003
8,2.375
9,2.375
49,0.0
53,29.049477233909442
77,28.891644171098946
78,204.36006247644707
79,207.41563977499015
2,1, 7,21, 0,11, 0.00,60.00,SummerDesignDay
7,27.649
8,0.75
9,0.75
49,0.0
53,29.578724461804597
77,29.440788103874915
78,174.55988817012152
79,178.70445221001438
2,1, 7,21, 0,12, 0.00,60.00,SummerDesignDay
7,29.454
8,0.0
9,0.0
49,0.0
53,29.976204315781324
77,29.87831688585955
78,125.57550083954963
79,132.37740616400558
2,1, 7,21, 0,13, 0.00,60.00,SummerDesignDay
7,30.784
8,0.0
9,0.0
49,0.0
53,30.360740030419862
77,30.231098821055248
78,145.3407128119619
79,134.45606796924187
2,1, 7,21, 0,14, 0.00,60.00,SummerDesignDay
7,31.715
8,0.0
9,0.0
49,0.0
53,30.877785343952894
77,30.740992673008385
78,186.0398684004872
79,187.49159676377056
2,1, 7,21, 0,15, 0.00,60.00,SummerDesignDay
7,32.0
8,0.0
9,0.0
49,0.0
53,31.283001615434234
77,31.22875127232421
78,142.3058839218961
79,149.80367391803895
2,1, 7,21, 0,16, 0.00,60.00,SummerDesignDay
7,31.43
8,0.0
9,0.0
49,0.0
53,31.481292560223267
77,31.54402800843253
78,71.02214624830566
79,80.93054021985652
2,1, 7,21, 0,17, 0.00,60.00,SummerDesignDay
7,30.328
8,0.0
9,0.0
49,0.0
53,31.487725843973486
77,31.663822909411497
78,20.54561629378645
79,24.081908834913715
2,1, 7,21, 0,18, 0.00,60.00,SummerDesignDay
7,28.922
8,0.0
9,0.0
49,0.0
53,31.367283327805513
77,31.627602802672286
78,-63.35876452284932
79,-46.90284506623888
2,1, 7,21, 0,19, 0.00,60.00,SummerDesignDay
7,26.927
8,0.0
9,0.0
49,0.0
53,30.76971414037974
77,31.175707688574896
78,-270.94364736347086
79,-238.01425633495614
2,1, 7,21, 0,20, 0.00,60.00,SummerDesignDay
7,25.027
8,0.0
9,0.0
49,0.0
53,30.00726286126099
77,30.28135183824088
78,-254.20450340256235
79,-285.0951728920696
2,1, 7,21, 0,21, 0.00,60.00,SummerDesignDay
7,23.544999999999998
8,0.0
9,0.0
49,0.0
53,29.61997806701546
77,29.79124046988383
78,-124.30092545324362
79,-127.53768470495723
2,1, 7,21, 0,22, 0.00,60.00,SummerDesignDay
7,22.177
8,0.0
9,0.0
49,0.0
53,29.276653370326365
77,29.448913744984864
78,-118.7122685993368
79,-118.1129166846879
2,1, 7,21, 0,23, 0.00,60.00,SummerDesignDay
7,20.999000000000002
8,0.0
9,0.0
49,0.0
53,28.93068769176445
77,29.105718029516517
78,-118.27070845085169
79,-118.59561984414907
2,1, 7,21, 0,24, 0.00,60.00,SummerDesignDay
7,19.935000000000002
8,0.0
9,0.0
49,0.0
53,28.57827042087051
77,28.75996303371106
78,-122.2535677024035
79,-121.56129537731961
3,1, 7,21, 0,SummerDesignDay
54,29.070286730686146,25.83658016453008, 6,15,32.193975358266265,15,45
55,27.587961522334066,15.470509553056976, 5,60,47.33757447560985,13,60
56,1.178891324479166,0.10900534404515015, 9,45,1.4712542486494864,13,60
57,9.790593757972587,9.648704716354754,16,30,10.278053065276573, 7,15
58,29.28109146058517,25.848673355670254, 6,15,31.676924643956955,16,30
59,30.16370875908741,15.617680231826192, 5,60,53.20799008893018, 9,45
60,1.2012894312601752,0.413777738452411,17,30,1.660836246744791, 9,45
61,11.651113940105384,11.426210462973415, 7,15,12.016081470319259,19,60
62,28.921763995855233,25.848563364777785, 6,15,31.754836265052585,18,15
63,25.665543561267285,15.617680231826192, 5,60,35.63577447588729,14,60
64,0.958924700109498,0.2222036795865269,10,30,1.3133315026169181, 5,15
65,11.659727716712768,11.475737284316722,19,15,12.012393821806091, 6,45
66,29.25749967005993,25.848463957279638, 6,15,33.740652875204226,17,15
67,30.02412150452407,15.617680231826188, 5,60,60.89883753770415,17,15
68,1.20235670552655,0.22220368296566254,10,30,1.682925047500068,17,15
69,11.6575685705213,11.426201253595952,19,45,12.161170832903213, 7,15
70,29.193394233303284,27.616110678660956, 7,45,30.783613010286494,19,15
71,29.193380218019787,27.616110678660956, 7,60,30.783613010286494,19,30
72,1.0493743709275147,0.18968310631450933, 8,45,1.5063621352293142, 6,15
73,29.285111894442135,26.50201385554887, 6,15,31.82757812952158,16,30
74,32.358091936939246,12.86097057462711, 5,60,61.857678297565116,13,45
75,0.8075657990744095,0.11247620218901912,17,60,1.2275781353835438,20,15
76,13.388934828073433,13.087087062254847,17,45,14.0209480658242,19,45
10,0.0,0, 1,15,0, 1,15
11,9.,9, 1,15,9, 1,15
4,1, 7
50,-30412800.0,-316800.0,21, 1,15,-316800.0,21, 1,15
51,30412800.0,316800.0,21, 1,15,316800.0,21, 1,15
52,0.0,0.0,21, 1,15,0.0,21, 1,15
1,DENVER CENTENNIAL  GOLDEN   N ANN HTG 99% CONDNS DB,  37.62,-122.40,  -8.00,   2.00
2,1,12,21, 0, 1, 0.00,60.00,WinterDesignDay
7,-15.5
8,1.25
9,1.25
49,0.0
53,-18.017080271459086
77,-18.01997893809324
78,-0.02828840513304698
79,-0.028360030519714297
2,1,12,21, 0, 2, 0.00,60.00,WinterDesignDay
7,-15.5
8,3.25
9,3.25
49,0.0
53,-18.01715067603475
77,-18.02004721967093
78,-0.02772211781555578
79,-0.02779231140497105
2,1,12,21, 0, 3, 0.00,60.00,WinterDesignDay
7,-15.5
8,3.375
9,3.375
49,0.0
53,-18.017219669908958
77,-18.020114134326292
78,-0.0271671506059028
79,-0.027235940928654875
2,1,12,21, 0, 4, 0.00,60.00,WinterDesignDay
7,-15.5
8,1.125
9,1.125
49,0.0
53,-18.017287281337342
77,-18.020179709385747
78,-0.02662327791838326
79,-0.02669069294002965
2,1,12,21, 0, 5, 0.00,60.00,WinterDesignDay
7,-15.5
8,1.875
9,1.875
49,0.0
53,-18.017353538010035
77,-18.020243971631082
78,-0.026090278639842257
79,-0.02615634578087659
2,1,12,21, 0, 6, 0.00,60.00,WinterDesignDay
7,-15.5
8,3.0
9,3.0
49,0.0
53,-18.017418467063006
77,-18.020306947310264
78,-0.02556793602417251
79,-0.025632682152037407
2,1,12,21, 0, 7, 0.00,60.00,WinterDesignDay
7,-15.5
8,3.0
9,3.0
49,0.0
53,-18.017482095089093
77,-18.02036866214798
78,-0.025056037627255723
79,-0.025119489081766602
2,1,12,21, 0, 8, 0.00,60.00,WinterDesignDay
7,-15.5
8,3.0
9,3.0
49,0.0
53,-18.017544448148865
77,-18.02042914135602
78,-0.024554375200983802
79,-0.024616557798114194
2,1,12,21, 0, 9, 0.00,60.00,WinterDesignDay
7,-15.5
8,3.0
9,3.0
49,0.0
53,-18.017605551781273
77,-18.020488409643423
78,-0.024062744626560217
79,-0.02412368367676803
2,1,12,21, 0,10, 0.00,60.00,WinterDesignDay
7,-15.5
8,2.375
9,2.375
49,0.0
53,-18.017665431014056
77,-18.020546491226455
78,-0.02358094582813086
79,-0.023640666134020286
2,1,12,21, 0,11, 0.00,60.00,WinterDesignDay
7,-15.5
8,0.75
9,0.75
49,0.0
53,-18.017724110373972
77,-18.02060340983834
78,-0.023108782703480824
79,-0.02316730857629065
2,1,12,21, 0,12, 0.00,60.00,WinterDesignDay
7,-15.5
8,0.0
9,0.0
49,0.0
53,-18.017781613896787
77,-18.020659188738883
78,-0.02264606302697869
79,-0.022703418297992946
2,1,12,21, 0,13, 0.00,60.00,WinterDesignDay
7,-15.5
8,0.0
9,0.0
49,0.0
53,-18.017837965137108
77,-18.020713850723805
78,-0.02219259838997578
79,-0.022248806415111365
2,1,12,21, 0,14, 0.00,60.00,WinterDesignDay
7,-15.5
8,0.0
9,0.0
49,0.0
53,-18.017893187178025
77,-18.020767418134028
78,-0.021748204124931725
79,-0.021803287806376134
2,1,12,21, 0,15, 0.00,60.00,WinterDesignDay
7,-15.5
8,0.0
9,0.0
49,0.0
53,-18.017947302640476
77,-18.0208199128646
78,-0.02131269923227075
79,-0.021366680996093044
2,1,12,21, 0,16, 0.00,60.00,WinterDesignDay
7,-15.5
8,0.0
9,0.0
49,0.0
53,-18.01800033369252
77,-18.020871356373636
78,-0.02088590629244491
79,-0.020938808141231217
2,1,12,21, 0,17, 0.00,60.00,WinterDesignDay
7,-15.5
8,0.0
9,0.0
49,0.0
53,-18.018052302058415
77,-18.02092176969094
78,-0.020467651417579003
79,-0.02051949490303909
2,1,12,21, 0,18, 0.00,60.00,WinterDesignDay
7,-15.5
8,0.0
9,0.0
49,0.0
53,-18.018103229027453
77,-18.020971173426517
78,-0.020057764175590354
79,-0.020108570422859472
2,1,12,21, 0,19, 0.00,60.00,WinterDesignDay
7,-15.5
8,0.0
9,0.0
49,0.0
53,-18.018153135462672
77,-18.021019587778945
78,-0.019656077511498005
79,-0.019705867235499074
2,1,12,21, 0,20, 0.00,60.00,WinterDesignDay
7,-15.5
8,0.0
9,0.0
49,0.0
53,-18.01820204180938
77,-18.021067032543506
78,-0.019262427693511608
79,-0.019311221194013267
2,1,12,21, 0,21, 0.00,60.00,WinterDesignDay
7,-15.5
8,0.0
9,0.0
49,0.0
53,-18.01824996810354
77,-18.021113527120235
78,-0.018876654248943137
79,-0.01892447141940558
2,1,12,21, 0,22, 0.00,60.00,WinterDesignDay
7,-15.5
8,0.0
9,0.0
49,0.0
53,-18.018296933979876
77,-18.021159090521756
78,-0.018498599886928258
79,-0.018545460225172603
2,1,12,21, 0,23, 0.00,60.00,WinterDesignDay
7,-15.5
8,0.0
9,0.0
49,0.0
53,-18.018342958679966
77,-18.021203741380976
78,-0.01812811044533813
79,-0.01817403306222601
2,1,12,21, 0,24, 0.00,60.00,WinterDesignDay
7,-15.5
8,0.0
9,0.0
49,0.0
53,-18.018388061060097
77,-18.02124749795866
78,-0.017765034839441363
79,-0.017810038458819497
3,1,12,21, 0,WinterDesignDay
54,-17.948472505727658,-17.949022882719827,24,60,-17.94782775198172, 1,15
55,-17.465859085260565,-17.465891256019646,24,60,-17.46582139804444, 1,15
56,0.5453252159393962,0.5451674942319471, 1,15,0.5454599520202207,24,60
57,7.151370309115248,7.151369265391295,24,60,7.151371531840626, 1,15
58,-17.948472505727658,-17.949022882719827,24,60,-17.94782775198172, 1,15
59,-17.465859085260565,-17.465891256019646,24,60,-17.46582139804444, 1,15
60,0.5453252159393962,0.5451674942319471, 1,15,0.5454599520202207,24,60
61,7.151370309115248,7.151369265391295,24,60,7.151371531840626, 1,15
62,-17.94244313163485,-17.942993604256582,24,60,-17.941798266038074, 1,15
63,-17.420319747374677,-17.42035121105325,24,60,-17.42028288848667, 1,15
64,0.5601038772570976,0.5599546396901517, 1,15,0.5602313690715408,24,60
65,7.4163098617460905,7.416308637786458,24,60,7.416311295613768, 1,15
66,-17.94244313163485,-17.942993604256582,24,60,-17.941798266038074, 1,15
67,-17.420319747374677,-17.42035121105325,24,60,-17.42028288848667, 1,15
68,0.5601038772570976,0.5599546396901517, 1,15,0.5602313690715408,24,60
69,7.4163098617460905,7.416308637786458,24,60,7.416311295613768, 1,15
70,-18.02509468219863,-18.025814675525208,24,60,-18.024251185370247, 1,15
71,-18.025078179353795,-18.025801826155764,24,60,-18.024230402421246, 1,15
72,0.12481134878179806,0.12351437855006463, 1,15,0.12590370686307217,24,60
73,-18.097260011776772,-18.09787071385118,24,60,-18.096544585699736, 1,15
74,-20.3029411482885,-20.302950207711692,24,60,-20.30293053533356, 1,15
75,0.645550733996863,0.64552710962814, 1,15,0.645570726550079,24,60
76,8.618955371237393,8.61895513301135,24,60,8.618955650315328, 1,15
10,0.0,0, 1,15,0, 1,15
11,10.,10, 1,15,10, 1,15
4,1,12
50,-30412800.0,-316800.0,21, 1,15,-316800.0,21, 1,15
51,30412800.0,316800.0,21, 1,15,316800.0,21, 1,15
52,0.0,0.0,21, 1,15,0.0,21, 1,15
1,RUN PERIOD 1,  37.62,-122.40,  -8.00,   2.00
2,1, 1, 1, 0, 1, 0.00,60.00,Tuesday
7,7.0125
8,1.25
9,1.25
49,0.0
53,12.199399978556956
77,12.361431044829107
78,-100.57028125914951
79,-98.4302151433478
2,1, 1, 1, 0, 2, 0.00,60.00,Tuesday
7,7.2
8,3.25
9,3.25
49,0.0
53,12.059186968628564
77,12.15760943920233
78,-37.219789843753425
79,-48.79306714847007
2,1, 1, 1, 0, 3, 0.00,60.00,Tuesday
7,6.8875
8,3.375
9,3.375
49,0.0
53,11.90957454461238
77,12.038700840233219
78,-67.82948610826284
79,-59.24479277243419
2,1, 1, 1, 0, 4, 0.00,60.00,Tuesday
7,6.324999999999999
8,1.125
9,1.125
49,0.0
53,11.627956730770398
77,11.796919307692107
78,-110.61437014974595
79,-105.55735532525158
2,1, 1, 1, 0, 5, 0.00,60.00,Tuesday
7,5.0375
8,1.875
9,1.875
49,0.0
53,11.344186502054523
77,11.502895134737534
78,-99.96837138156518
79,-103.41095597357584
2,1, 1, 1, 0, 6, 0.00,60.00,Tuesday
7,4.4
8,3.0
9,3.0
49,0.0
53,11.085876750499818
77,11.242059588605294
78,-94.41706299214196
79,-95.02702836485949
2,1, 1, 1, 0, 7, 0.00,60.00,Tuesday
7,5.4624999999999995
8,3.0
9,3.0
49,0.0
53,10.869477124842275
77,11.01113016276465
78,-76.58112633114325
79,-79.13338136027274
2,1, 1, 1, 0, 8, 0.00,60.00,Tuesday
7,5.4125
8,3.0
9,3.0
49,0.0
53,11.121175462544034
77,10.968268343260457
78,151.19689019632807
79,87.82888774092078
2,1, 1, 1, 0, 9, 0.00,60.00,Tuesday
7,6.750000000000001
8,3.0
9,3.0
49,0.0
53,12.563822787248448
77,12.011380118706436
78,644.5800655005323
79,635.1694756565068
2,1, 1, 1, 0,10, 0.00,60.00,Tuesday
7,8.487499999999999
8,2.375
9,2.375
49,0.0
53,13.769959865543935
77,13.589723461477796
78,477.2782818619107
79,497.7339219091339
2,1, 1, 1, 0,11, 0.00,60.00,Tuesday
7,9.2125
8,0.75
9,0.75
49,0.0
53,14.325620086997967
77,14.477360146131353
78,164.46799975480113
79,206.6150931106189
2,1, 1, 1, 0,12, 0.00,60.00,Tuesday
7,9.775
8,0.0
9,0.0
49,0.0
53,14.477153065966798
77,14.675871107682958
78,39.09329005461521
79,36.485304144754664
2,1, 1, 1, 0,13, 0.00,60.00,Tuesday
7,10.375
8,0.0
9,0.0
49,0.0
53,14.745054260080993
77,14.838667180421167
78,105.4760341542195
79,89.79708537625382
2,1, 1, 1, 0,14, 0.00,60.00,Tuesday
7,10.9125
8,0.0
9,0.0
49,0.0
53,15.440079484691147
77,15.375302558895992
78,282.4259039966964
79,262.7332175646975
2,1, 1, 1, 0,15, 0.00,60.00,Tuesday
7,12.85
8,0.0
9,0.0
49,0.0
53,16.0956369921907
77,16.18057870099919
78,240.46172730195727
79,266.8446566390574
2,1, 1, 1, 0,16, 0.00,60.00,Tuesday
7,13.9
8,0.0
9,0.0
49,0.0
53,15.70395673045738
77,16.23312572718209
78,-258.02073775206117
79,-180.5354521886084
2,1, 1, 1, 0,17, 0.00,60.00,Tuesday
7,12.15
8,0.0
9,0.0
49,0.0
53,14.420751220238339
77,15.111294557992252
78,-560.0724002563632
79,-570.9965932239945
2,1, 1, 1, 0,18, 0.00,60.00,Tuesday
7,11.1
8,0.0
9,0.0
49,0.0
53,13.877299883419198
77,14.106702005257628
78,-203.8300855945784
79,-234.06717598333105
2,1, 1, 1, 0,19, 0.00,60.00,Tuesday
7,10.7875
8,0.0
9,0.0
49,0.0
53,13.60204390379433
77,13.745203919561781
78,-96.41045072226123
79,-100.67966773602393
2,1, 1, 1, 0,20, 0.00,60.00,Tuesday
7,10.6
8,0.0
9,0.0
49,0.0
53,13.442846866356684
77,13.545039472818008
78,-52.30307029610832
79,-57.76341924059629
2,1, 1, 1, 0,21, 0.00,60.00,Tuesday
7,9.5375
8,0.0
9,0.0
49,0.0
53,13.216131746782722
77,13.365698317727857
78,-94.35525381924607
79,-84.9244945195745
2,1, 1, 1, 0,22, 0.00,60.00,Tuesday
7,9.2125
8,0.0
9,0.0
49,0.0
53,13.009954746321904
77,13.126947094535074
78,-65.00435849135482
79,-73.71149966196933
2,1, 1, 1, 0,23, 0.00,60.00,Tuesday
7,8.4
8,0.0
9,0.0
49,0.0
53,12.752032728093395
77,12.917547626622722
78,-107.44882092742228
79,-96.80271036956455
2,1, 1, 1, 0,24, 0.00,60.00,Tuesday
7,7.1125
8,0.0
9,0.0
49,0.0
53,12.465852220261024
77,12.620535504713335
78,-98.53440417190922
79,-103.72143103330245
3,1, 1, 1, 0,Tuesday
54,13.757899253932791,10.103385085052366, 8,15,19.282579194334197,15,30
55,20.27197145055895,3.0455094070138733, 6,60,55.82720490182537,15,30
56,1.366262319784734,0.8799123986378726, 8,45,1.9349646636743671,11,15
57,4.995016059575497,1.6555829578535517, 8,15,7.7225534405067915, 5,60
58,13.178543160271275,10.102906738024842, 8,15,16.36604356355078,10,60
59,13.345698799066426,3.0449861943283936, 6,60,44.467944696280064,10,30
60,1.1445314255081807,0.23988992795719752,13,45,1.828886591152634, 9,45
61,4.719429439555133,1.6502441782763084, 8,15,7.5264394667015875,17,30
62,12.805279433386204,10.102909575614525, 8,15,16.273051060169472,15,45
63,9.139119615515465,3.0905683599646214, 6,60,18.643077556570567,15,45
64,0.9878888541296525,0.24747592781118102,13,45,1.2504700366040349,17,45
65,4.408293555670272,0.5579676741803329, 9,30,7.8934432039445905,17,30
66,13.051542212058019,10.103343941418272, 8,15,18.64489015568102,15,60
67,11.950010346991403,3.0455094070138733, 6,60,45.76524994703027,15,60
68,1.103363167420467,0.44363775531687005,11,15,1.7473673440401225,15,45
69,4.572762309908035,0.5579674791020115, 9,30,7.816799771520542,16,60
70,13.171690777886885,11.628562980528338, 8,30,14.592160680088417,16,60
71,13.17170603820604,11.628562980528338, 8,45,14.592160680088417,17,15
72,1.1385606813119014,0.3691482192523619,18,15,1.4164709024224584, 7,30
73,13.140334091012491,10.496850411615146, 8,15,16.384122161444722,15,30
74,10.700080964460895,-2.9488756687983018, 8,30,34.87312823207237,14,45
75,0.8664103877286472,0.22259532904455492, 8,60,1.3539337969032081,17,30
76,5.214850647514592,1.154824722066949, 9,15,8.9878465467567,17,30
10,0.0,0, 1,15,0, 1,15
11,3.,3, 1,15,3, 1,15
2,2, 1, 2, 0, 1, 0.00,60.00,Wednesday
7,8.075000000000001
8,0.0
9,0.0
49,0.0
53,12.355095533935556
77,12.439764688535764
78,-26.993060000778193
79,-38.31452382473694
2,2, 1, 2, 0, 2, 0.00,60.00,Wednesday
7,7.15
8,1.25
9,0.625
49,0.0
53,12.02338574469326
77,12.243428480991117
78,-158.70280906792107
79,-130.56493229860456
2,2, 1, 2, 0, 3, 0.00,60.00,Wednesday
7,5.7875
8,1.375
9,1.0
49,0.0
53,11.612575116083697
77,11.80083741092123
78,-130.33492881208187
79,-145.4397248845152
2,2, 1, 2, 0, 4, 0.00,60.00,Wednesday
7,4.5375
8,2.25
9,2.25
49,0.0
53,11.261727889854448
77,11.462563845051365
78,-133.53260969132182
79,-129.12916394573648
2,2, 1, 2, 0, 5, 0.00,60.00,Wednesday
7,4.9624999999999995
8,1.125
9,1.125
49,0.0
53,11.073112156023406
77,11.193223973355337
78,-47.32522710984438
79,-63.80908878348269
2,2, 1, 2, 0, 6, 0.00,60.00,Wednesday
7,6.6
8,0.0
9,0.0
49,0.0
53,11.087728326108557
77,11.15118950591974
78,4.266618031347361
79,1.4265015497536941
2,2, 1, 2, 0, 7, 0.00,60.00,Wednesday
7,7.575
8,0.0
9,0.0
49,0.0
53,11.085058609809478
77,11.152244580686986
78,-11.088230533039892
79,-7.108372145498355
2,2, 1, 2, 0, 8, 0.00,60.00,Wednesday
7,7.425
8,0.0
9,0.0
49,0.0
53,11.197897045548942
77,11.153327198561119
78,51.10054877607253
79,30.789604719329294
2,2, 1, 2, 0, 9, 0.00,60.00,Wednesday
7,9.325000000000001
8,0.0
9,0.0
49,0.0
53,11.953800354923173
77,11.614288458702394
78,285.84308573898676
79,258.6731210531216
2,2, 1, 2, 0,10, 0.00,60.00,Wednesday
7,11.287499999999998
8,0.0
9,0.0
49,0.0
53,12.73096833019401
77,12.503958184865233
78,322.5740860030414
79,334.8455137278264
2,2, 1, 2, 0,11, 0.00,60.00,Wednesday
7,13.075
8,0.625
9,0.0
49,0.0
53,13.441265826929463
77,13.283762534297828
78,291.63629137283647
79,280.2702991111811
2,2, 1, 2, 0,12, 0.00,60.00,Wednesday
7,13.9
8,1.625
9,0.625
49,0.0
53,14.039754395083074
77,14.036686040075239
78,206.07186610667202
79,236.08648185183114
2,2, 1, 2, 0,13, 0.00,60.00,Wednesday
7,13.9
8,2.0
9,1.0
49,0.0
53,14.769223932019607
77,14.65074107548039
78,319.47295880943
79,282.922841621184
2,2, 1, 2, 0,14, 0.00,60.00,Wednesday
7,13.9
8,2.0
9,1.0
49,0.0
53,15.16019128002615
77,15.300113863507896
78,89.37913209314098
79,134.9341869374862
2,2, 1, 2, 0,15, 0.00,60.00,Wednesday
7,12.837499999999999
8,2.0
9,1.0
49,0.0
53,15.242449534835671
77,15.463592070685223
78,43.21026185172117
79,48.031613442392846
2,2, 1, 2, 0,16, 0.00,60.00,Wednesday
7,12.575
8,1.375
9,1.0
49,0.0
53,14.962973114358563
77,15.360308184405849
78,-168.94595798610783
79,-125.5933488133225
2,2, 1, 2, 0,17, 0.00,60.00,Wednesday
7,11.7375
8,1.0
9,0.375
49,0.0
53,13.919037780822581
77,14.56058736705435
78,-506.03739791641635
79,-447.8184492484195
2,2, 1, 2, 0,18, 0.00,60.00,Wednesday
7,10.7875
8,2.25
9,1.25
49,0.0
53,13.400640596271987
77,13.667959961312185
78,-236.14663833130572
79,-268.20291477598573
2,2, 1, 2, 0,19, 0.00,60.00,Wednesday
7,11.287499999999998
8,1.125
9,0.75
49,0.0
53,13.092763232718642
77,13.227840733281914
78,-92.33827735047068
79,-108.2603409544908
2,2, 1, 2, 0,20, 0.00,60.00,Wednesday
7,11.7
8,0.0
9,0.0
49,0.0
53,13.009150327667811
77,13.080542728316736
78,-23.86214255656972
79,-30.207668624737504
2,2, 1, 2, 0,21, 0.00,60.00,Wednesday
7,10.6375
8,0.0
9,0.0
49,0.0
53,12.848919690981429
77,12.976132135748946
78,-73.04893350540912
79,-61.12784672406433
2,2, 1, 2, 0,22, 0.00,60.00,Wednesday
7,9.3125
8,0.0
9,0.0
49,0.0
53,12.510960498624069
77,12.693473047202488
78,-130.28820446506143
79,-124.88293718855408
2,2, 1, 2, 0,23, 0.00,60.00,Wednesday
7,9.2125
8,0.0
9,0.0
49,0.0
53,12.25590876720434
77,12.389615482243075
78,-77.9163099161864
79,-88.85408503181122
2,2, 1, 2, 0,24, 0.00,60.00,Wednesday
7,9.0875
8,0.0
9,0.0
49,0.0
53,12.048567422941428
77,12.190409175699687
78,-80.56862151878532
79,-76.81364392545012
3,2, 1, 2, 0,Wednesday
54,13.21779175063165,10.344800895914236, 4,60,18.4642714453738,13,60
55,17.855964800450423,1.7296501337806647, 4,60,58.08704836572539,13,45
56,1.300625996971639,0.5141025897809343, 8,60,2.0115487466324504,13,45
57,6.0032066141534335,1.5586145991789182, 2,60,14.153565216797151, 9,60
58,12.699303867512043,10.344800897685387, 4,60,15.584015446607054,14,15
59,11.715800428065029,1.7296501442478296, 4,60,29.642086484900673,10,30
60,1.1288568910493835,0.3697815671044751,15,30,1.5491661142067221,10,45
61,5.752071968077886,1.6026233666905916, 4,60,14.13423136779882, 9,60
62,12.501595799516162,10.344800897685378, 4,60,15.58400462824965,14,15
63,9.523604129449405,1.7296501442478416, 4,60,21.12115051975293,13,60
64,1.0216655074968708,0.177189969888637, 9,45,1.3018592166098113, 5,15
65,5.412828411031394,1.6026233666906082, 4,60,11.771947322530043, 9,60
66,12.709176902932201,10.34480089591424, 4,60,17.090829336517192,15,60
67,11.831849300263308,1.7296501337806722, 4,60,36.51720199004026,15,60
68,1.1014110184463644,0.177189969888637, 9,45,1.5433897101934468,15,45
69,5.561650839698175,1.5586146202735311, 2,60,11.771947322530043, 9,60
70,12.868143943914804,11.607512493026055, 8,60,14.072738834819338,16,60
71,12.872953533431845,11.607512493026055, 9,15,14.072738834819338,17,15
72,1.1101911070585773,0.23052107963957863, 9,60,1.5059318802902841, 5,30
73,12.737916294262158,10.845052980610486, 5,30,15.530255926979164,13,60
74,9.133993565760186,-4.786987275120223, 4,60,39.323981799415186,13,45
75,0.8782173367138125,0.21476082247010433,15,45,1.3690110637724122,17,45
76,6.6158471867782325,1.457711605967855,18,60,16.771775528030773, 9,45
10,0.0,0, 1,15,0, 1,15
11,4.,4, 1,15,4, 1,15
2,3, 1, 3, 0, 1, 0.00,60.00,Thursday
7,9.2125
8,0.0
9,0.0
49,0.0
53,12.000162072975968
77,12.056790176998037
78,-3.554389762865174
79,-17.20179302863622
2,3, 1, 3, 0, 2, 0.00,60.00,Thursday
7,9.775
8,0.0
9,0.0
49,0.0
53,12.048820401569056
77,12.082653494268524
78,9.58387339601686
79,11.574947732516957
2,3, 1, 3, 0, 3, 0.00,60.00,Thursday
7,11.375
8,0.0
9,0.0
49,0.0
53,12.05759977571967
77,12.097377420402012
78,-2.5820369592792245
79,0.43517435401583304
2,3, 1, 3, 0, 4, 0.00,60.00,Thursday
7,13.2625
8,0.0
9,0.0
49,0.0
53,12.27085218538572
77,12.16420148943148
78,62.813505318911446
79,50.8677475048698
2,3, 1, 3, 0, 5, 0.00,60.00,Thursday
7,13.212500000000002
8,0.0
9,0.0
49,0.0
53,12.336833962284338
77,12.300668433903603
78,22.060186808040303
79,32.04835679895497
2,3, 1, 3, 0, 6, 0.00,60.00,Thursday
7,12.425
8,0.0
9,0.0
49,0.0
53,12.251527941416388
77,12.29592182883296
78,-19.76012737381258
79,-16.42172874401091
2,3, 1, 3, 0, 7, 0.00,60.00,Thursday
7,11.5125
8,0.0
9,0.0
49,0.0
53,12.126103325795203
77,12.207092264327965
78,-45.74782660982825
79,-42.48507545767647
2,3, 1, 3, 0, 8, 0.00,60.00,Thursday
7,11.1
8,0.0
9,0.0
49,0.0
53,12.177757613253416
77,12.129214771676907
78,24.190362500956695
79,3.3385970692243987
2,3, 1, 3, 0, 9, 0.00,60.00,Thursday
7,11.474999999999998
8,0.0
9,0.0
49,0.0
53,12.795972913340012
77,12.503205653049566
78,261.9984586060411
79,230.36711934534418
2,3, 1, 3, 0,10, 0.00,60.00,Thursday
7,12.7
8,0.0
9,0.0
49,0.0
53,13.70386355832585
77,13.435447455933458
78,389.8476552544356
79,385.3540927965379
2,3, 1, 3, 0,11, 0.00,60.00,Thursday
7,12.6125
8,0.0
9,0.0
49,0.0
53,14.186871265442283
77,14.240447838035957
78,149.97538403322915
79,195.86778391665632
2,3, 1, 3, 0,12, 0.00,60.00,Thursday
7,13.95
8,0.625
9,0.625
49,0.0
53,14.593796939593567
77,14.547941805218656
78,169.17118658165415
79,136.71184216844554
2,3, 1, 3, 0,13, 0.00,60.00,Thursday
7,15.375000000000002
8,2.25
9,1.625
49,0.0
53,15.24339886300246
77,15.170628571367605
78,250.4660237016675
79,253.53282530069464
2,3, 1, 3, 0,14, 0.00,60.00,Thursday
7,15.912500000000001
8,2.375
9,1.375
49,0.0
53,15.999083483012992
77,15.934311984925488
78,287.30334578331656
79,289.69912461759105
2,3, 1, 3, 0,15, 0.00,60.00,Thursday
7,16.1
8,1.375
9,1.0
49,0.0
53,16.115461103278573
77,16.364909172112586
78,-1.8502615222845833
79,40.35987467841393
2,3, 1, 3, 0,16, 0.00,60.00,Thursday
7,14.725
8,1.625
9,1.0
49,0.0
53,15.616045887225972
77,16.057054328898886
78,-235.44979959209405
79,-199.53073558560692
2,3, 1, 3, 0,17, 0.00,60.00,Thursday
7,13.9
8,2.0
9,1.625
49,0.0
53,14.576478731032179
77,15.196160465617563
78,-499.2256483727484
79,-443.9372791204273
2,3, 1, 3, 0,18, 0.00,60.00,Thursday
7,13.212500000000002
8,1.375
9,1.375
49,0.0
53,14.21908273760502
77,14.40138173397961
78,-156.7584444190711
79,-203.71607194915322
2,3, 1, 3, 0,19, 0.00,60.00,Thursday
7,12.425
8,1.0
9,1.0
49,0.0