Program Version,EnergyPlus, Version 9.6.0-f420c06a69, YMD=2022.05.12 06:24
1,5,Environment Title[],Latitude[deg],Longitude[deg],Time Zone[],Elevation[m]
2,8,Day of Simulation[],Month[],Day of Month[],DST Indicator[1=yes 0=no],Hour[],StartMinute[],EndMinute[],DayType
3,5,Cumulative Day of Simulation[],Month[],Day of Month[],DST Indicator[1=yes 0=no],DayType  ! When Daily Report Variables Requested
4,2,Cumulative Days of Simulation[],Month[]  ! When Monthly Report Variables Requested
5,1,Cumulative Days of Simulation[] ! When Run Period Report Variables Requested
6,1,Calendar Year of Simulation[] ! When Annual Report Variables Requested
7,1,Environment,Site Outdoor Air Drybulb Temperature [C] !Hourly
8,1,Environment,Site Total Sky Cover [] !Hourly
9,1,Environment,Site Opaque Sky Cover [] !Hourly
10,7,Environment,Site Daylight Saving Time Status [] !Daily [Value,Min,Hour,Minute,Max,Hour,Minute]
11,7,Environment,Site Day Type Index [] !Daily [Value,Min,Hour,Minute,Max,Hour,Minute]
49,1,ZONE ONE,Zone Total Internal Latent Gain Energy [J] !Hourly
50,9,TEST 352 MINUS,Other Equipment Total Heating Energy [J] !Monthly [Value,Min,Day,Hour,Minute,Max,Day,Hour,Minute]
51,9,TEST 352A,Other Equipment Total Heating Energy [J] !Monthly [Value,Min,Day,Hour,Minute,Max,Day,Hour,Minute]
52,9,ZONE ONE,Zone Other Equipment Total Heating Energy [J] !Monthly [Value,Min,Day,Hour,Minute,Max,Day,Hour,Minute]
53,1,ZONE ONE,Zone Mean Radiant Temperature [C] !Hourly
54,7,ZN001:WALL001,Surface Inside Face Temperature [C] !Daily [Value,Min,Hour,Minute,Max,Hour,Minute]
55,7,ZN001:WALL001,Surface Outside Face Temperature [C] !Daily [Value,Min,Hour,Minute,Max,Hour,Minute]
56,7,ZN001:WALL001,Surface Inside Face Convection Heat Transfer Coefficient [W/m2-K] !Daily [Value,Min,Hour,Minute,Max,Hour,Minute]
57,7,ZN001:WALL001,Surface Outside Face Convection Heat Transfer Coefficient [W/m2-K] !Daily [Value,Min,Hour,Minute,Max,Hour,Minute]
58,7,ZN001:WALL002,Surface Inside Face Temperature [C] !Daily [Value,Min,Hour,Minute,Max,Hour,Minute]
59,7,ZN001:WALL002,Surface Outside Face Temperature [C] !Daily [Value,Min,Hour,Minute,Max,Hour,Minute]
60,7,ZN001:WALL002,Surface Inside Face Convection Heat Transfer Coefficient [W/m2-K] !Daily [Value,Min,Hour,Minute,Max,Hour,Minute]
61,7,ZN001:WALL002,Surface Outside Face Convection Heat Transfer Coefficient [W/m2-K] !Daily [Value,Min,Hour,Minute,Max,Hour,Minute]
62,7,ZN001:WALL003,Surface Inside Face Temperature [C] !Daily [Value,Min,Hour,Minute,Max,Hour,Minute]
63,7,ZN001:WALL003,Surface Outside Face Temperature [C] !Daily [Value,Min,Hour,Minute,Max,Hour,Minute]
64,7,ZN001:WALL003,Surface Inside Face Convection Heat Transfer Coefficient [W/m2-K] !Daily [Value,Min,Hour,Minute,Max,Hour,Minute]
65,7,ZN001:WALL003,Surface Outside Face Convection Heat Transfer Coefficient [W/m2-K] !Daily [Value,Min,Hour,Minute,Max,Hour,Minute]
66,7,ZN001:WALL004,Surface Inside Face Temperature [C] !Daily [Value,Min,Hour,Minute,Max,Hour,Minute]
67,7,ZN001:WALL004,Surface Outside Face Temperature [C] !Daily [Value,Min,Hour,Minute,Max,Hour,Minute]
68,7,ZN001:WALL004,Surface Inside Face Convection Heat Transfer Coefficient [W/m2-K] !Daily [Value,Min,Hour,Minute,Max,Hour,Minute]
69,7,ZN001:WALL004,Surface Outside Face Convection Heat Transfer Coefficient [W/m2-K] !Daily [Value,Min,Hour,Minute,Max,Hour,Minute]
70,7,ZN001:FLR001,Surface Inside Face Temperature [C] !Daily [Value,Min,Hour,Minute,Max,Hour,Minute]
71,7,ZN001:FLR001,Surface Outside Face Temperature [C] !Daily [Value,Min,Hour,Minute,Max,Hour,Minute]
72,7,ZN001:FLR001,Surface Inside Face Convection Heat Transfer Coefficient [W/m2-K] !Daily [Value,Min,Hour,Minute,Max,Hour,Minute]
73,7,ZN001:ROOF001,Surface Inside Face Temperature [C] !Daily [Value,Min,Hour,Minute,Max,Hour,Minute]
74,7,ZN001:ROOF001,Surface Outside Face Temperature [C] !Daily [Value,Min,Hour,Minute,Max,Hour,Minute]
75,7,ZN001:ROOF001,Surface Inside Face Convection Heat Transfer Coefficient [W/m2-K] !Daily [Value,Min,Hour,Minute,Max,Hour,Minute]
76,7,ZN001:ROOF001,Surface Outside Face Convection Heat Transfer Coefficient [W/m2-K] !Daily [Value,Min,Hour,Minute,Max,Hour,Minute]
77,1,ZONE ONE,Zone Mean Air Temperature [C] !Hourly
78,1,ZONE ONE,Zone Air Heat Balance Surface Convection Rate [W] !Hourly
79,1,ZONE ONE,Zone Air Heat Balance Air Energy Storage Rate [W] !Hourly
End of Data Dictionary
1,DENVER CENTENNIAL  GOLDEN   N ANN CLG 1% CONDNS DB=>MWB,  37.62,-122.40,  -8.00,   2.00
2,1, 7,21, 0, 1, 0.00,60.00,SummerDesignDay
7,18.966
8,1.25
9,1.25
49,0.0
53,29.491490414743108
77,29.61050814568049
78,-70.72428359455908
79,-70.61350781247492
2,1, 7,21, 0, 2, 0.00,60.00,SummerDesignDay
7,18.244
8,3.25
9,3.25
49,0.0
53,29.287915321025576
77,29.407020441910795
78,-69.61878967559888
79,-69.90828339352564
2,1, 7,21, 0, 3, 0.00,60.00,SummerDesignDay
7,17.731
8,3.375
9,3.375
49,0.0
53,29.08873472764941
77,29.20770197150499
78,-68.48038324622398
79,-68.6124898570193
2,1, 7,21, 0, 4, 0.00,60.00,SummerDesignDay
7,17.275000000000002
8,1.125
9,1.125
49,0.0
53,28.889476394635743
77,29.009677924414365
78,-68.96310966532286
79,-68.85088727738386
2,1, 7,21, 0, 5, 0.00,60.00,SummerDesignDay
7,16.913999999999998
8,1.875
9,1.875
49,0.0
53,28.691510516656663
77,28.811373197076428
78,-68.21629875335395
79,-68.41816612776242
2,1, 7,21, 0, 6, 0.00,60.00,SummerDesignDay
7,16.990000000000002
8,3.0
9,3.0
49,0.0
53,28.620177747214992
77,28.664299066456124
78,-8.885023646957277
79,-24.47434690622099
2,1, 7,21, 0, 7, 0.00,60.00,SummerDesignDay
7,17.769
8,3.0
9,3.0
49,0.0
53,28.87661190530362
77,28.793286623202484
78,76.50739202443694
79,73.54227076711172
2,1, 7,21, 0, 8, 0.00,60.00,SummerDesignDay
7,19.783
8,3.0
9,3.0
49,0.0
53,29.175627811309077
77,29.032063358856014
78,89.58590096636269
79,87.22888668022723
2,1, 7,21, 0, 9, 0.00,60.00,SummerDesignDay
7,22.557
8,3.0
9,3.0
49,0.0
53,29.52030901068583
77,29.335592617409677
78,122.16848940791398
79,117.66927133465214
2,1, 7,21, 0,10, 0.00,60.00,SummerDesignDay
7,25.255000000000003
8,2.375
9,2.375
49,0.0
53,29.89926341152656
77,29.711722443044753
78,132.53888141033445
79,132.97222496074878
2,1, 7,21, 0,11, 0.00,60.00,SummerDesignDay
7,27.649
8,0.75
9,0.75
49,0.0
53,30.24936487393352
77,30.081441429831973
78,121.00034031810424
79,122.97966131113729
2,1, 7,21, 0,12, 0.00,60.00,SummerDesignDay
7,29.454
8,0.0
9,0.0
49,0.0
53,30.537199842669676
77,30.39993128709783
78,97.32972648420733
79,100.71757931105904
2,1, 7,21, 0,13, 0.00,60.00,SummerDesignDay
7,30.784
8,0.0
9,0.0
49,0.0
53,30.80102863820951
77,30.664852364115212
78,94.5947914368405
79,92.05729080041667
2,1, 7,21, 0,14, 0.00,60.00,SummerDesignDay
7,31.715
8,0.0
9,0.0
49,0.0
53,31.08946184108546
77,30.957664337036558
78,100.31180443353936
79,101.83931818167561
2,1, 7,21, 0,15, 0.00,60.00,SummerDesignDay
7,32.0
8,0.0
9,0.0
49,0.0
53,31.30019581949653
77,31.2150921642143
78,73.50562157080716
79,77.8101037205115
2,1, 7,21, 0,16, 0.00,60.00,SummerDesignDay
7,31.43
8,0.0
9,0.0
49,0.0
53,31.388422356146968
77,31.3722907429653
78,32.814198214106455
79,38.42990123732953
2,1, 7,21, 0,17, 0.00,60.00,SummerDesignDay
7,30.328
8,0.0
9,0.0
49,0.0
53,31.357025089210932
77,31.4130169873609
78,-1.245029386498881
79,1.9371857604116811
2,1, 7,21, 0,18, 0.00,60.00,SummerDesignDay
7,28.922
8,0.0
9,0.0
49,0.0
53,31.22509867456356
77,31.36214440472666
78,-40.28286287705058
79,-33.051617808303824
2,1, 7,21, 0,19, 0.00,60.00,SummerDesignDay
7,26.927
8,0.0
9,0.0
49,0.0
53,30.879658264466592
77,31.11534338416437
78,-138.91011750061415
79,-124.00977808260234
2,1, 7,21, 0,20, 0.00,60.00,SummerDesignDay
7,25.027
8,0.0
9,0.0
49,0.0
53,30.497319807215
77,30.665479495000046
78,-131.49736673353175
79,-144.81280404984082
2,1, 7,21, 0,21, 0.00,60.00,SummerDesignDay
7,23.544999999999998
8,0.0
9,0.0
49,0.0
53,30.286698194737795
77,30.39652050304937
78,-70.50452628273361
79,-72.68280078072789
2,1, 7,21, 0,22, 0.00,60.00,SummerDesignDay
7,22.177
8,0.0
9,0.0
49,0.0
53,30.09398567732802
77,30.203173189262344
78,-66.40378834270258
79,-66.11448399217065
2,1, 7,21, 0,23, 0.00,60.00,SummerDesignDay
7,20.999000000000002
8,0.0
9,0.0
49,0.0
53,29.898972071553075
77,30.01028731000325
78,-66.58545699790957
79,-66.66446647340665
2,1, 7,21, 0,24, 0.00,60.00,SummerDesignDay
7,19.935000000000002
8,0.0
9,0.0
49,0.0
53,29.698965532543003
77,29.814739519620716
78,-69.00040199267605
79,-68.58035631383956
3,1, 7,21, 0,SummerDesignDay
54,29.963831609302034,28.221558560322165, 6,30,31.642557880920712,15,60
55,27.547950429378446,15.193001388824118, 5,60,47.746854902818896,13,45
56,0.9012505505337408,0.23490192287523023, 9,30,1.1023566264230764,13,60
57,9.778699380694542,9.648570672807441,16,30,10.064251202384684, 7,15
58,30.042927476052956,28.22959480923787, 6,15,31.458712792782688,16,30
59,30.18545566799317,15.375230171440915, 5,60,53.740757700079875, 9,45
60,0.9220626365381456,0.26797900765309957,17,30,1.2407484105058313, 9,45
61,11.637702639659649,11.426186279799515,12,15,11.973513954735964,19,45
62,29.908267525413077,28.229554398441138, 6,15,31.4587127927827,16,30
63,25.59091468112469,15.375230171440915, 5,60,35.742307187776575,14,60
64,0.7555091868146341,0.16330289382166324,18,45,1.0167537315870046, 6,15
65,11.64894407669518,11.474404065361231,19,15,12.277630006018988, 6,45
66,30.036586872780813,28.22608138875622, 6,30,32.23915579429336,16,60
67,30.03899623555219,15.375230171440915, 5,60,61.49947508540572,17,15
68,0.9197802383110778,0.31759063786919944, 9,30,1.2344861884732312,16,60
69,11.64434277488188,11.426208899093854,14,45,11.996846154756655, 7,30
70,30.031621628309868,29.093155349979323, 7,60,30.945123281376752,19,15
71,30.031602747668614,29.093155349979323, 8,15,30.945123281376752,19,30
72,0.8650093547845447,0.1, 9,15,1.245901650747526, 6,30
73,30.095496185813506,28.32347673067, 6,30,31.80662890188499,15,60
74,32.365826852015836,12.87882091467808, 5,60,61.8618147626266,13,45
75,0.8160563610062609,0.24383830978507942,18,30,1.103611790755641,20,15
76,13.389195220664321,13.087087090982264,17,45,14.02062821518604,19,45
10,0.0,0, 1,15,0, 1,15
11,9.,9, 1,15,9, 1,15
4,1, 7
50,-30412800.0,-316800.0,21, 1,15,-316800.0,21, 1,15
51,30412800.0,316800.0,21, 1,15,316800.0,21, 1,15
52,0.0,0.0,21, 1,15,0.0,21, 1,15
1,DENVER CENTENNIAL  GOLDEN   N ANN HTG 99% CONDNS DB,  37.62,-122.40,  -8.00,   2.00
2,1,12,21, 0, 1, 0.00,60.00,WinterDesignDay
7,-15.5
8,1.25
9,1.25
49,0.0
53,-18.604519342696925
77,-18.60678015743685
78,-0.046179585286725944
79,-0.0462423934680589
2,1,12,21, 0, 2, 0.00,60.00,WinterDesignDay
7,-15.5
8,3.25
9,3.25
49,0.0
53,-18.604632720297396
77,-18.606891888739703
78,-0.04568034707178792
79,-0.04574247726118599
2,1,12,21, 0, 3, 0.00,60.00,WinterDesignDay
7,-15.5
8,3.375
9,3.375
49,0.0
53,-18.604744870939
77,-18.607002412079186
78,-0.04518649741204506
79,-0.04524795690631192
2,1,12,21, 0, 4, 0.00,60.00,WinterDesignDay
7,-15.5
8,1.125
9,1.125
49,0.0
53,-18.60485580789571
77,-18.607111740494847
78,-0.04469797838445233
79,-0.04475877439288212
2,1,12,21, 0, 5, 0.00,60.00,WinterDesignDay
7,-15.5
8,1.875
9,1.875
49,0.0
53,-18.604965544297997
77,-18.60721988688603
78,-0.04421473268051335
79,-0.0442748723340995
2,1,12,21, 0, 6, 0.00,60.00,WinterDesignDay
7,-15.5
8,3.0
9,3.0
49,0.0
53,-18.605074093134355
77,-18.607326864013363
78,-0.04373670358845638
79,-0.04379619395948822
2,1,12,21, 0, 7, 0.00,60.00,WinterDesignDay
7,-15.5
8,3.0
9,3.0
49,0.0
53,-18.60518146725288
77,-18.60743268450024
78,-0.04326383501366893
79,-0.04332268307596491
2,1,12,21, 0, 8, 0.00,60.00,WinterDesignDay
7,-15.5
8,3.0
9,3.0
49,0.0
53,-18.605287679362768
77,-18.607537360834247
78,-0.04279607145773734
79,-0.04285428412030074
2,1,12,21, 0, 9, 0.00,60.00,WinterDesignDay
7,-15.5
8,3.0
9,3.0
49,0.0
53,-18.605392742035782
77,-18.60764090536867
78,-0.04233335800281446
79,-0.0423909421074373
2,1,12,21, 0,10, 0.00,60.00,WinterDesignDay
7,-15.5
8,2.375
9,2.375
49,0.0
53,-18.605496667707804
77,-18.607743330323878
78,-0.04187564032468871
79,-0.04193260263130911
2,1,12,21, 0,11, 0.00,60.00,WinterDesignDay
7,-15.5
8,0.75
9,0.75
49,0.0
53,-18.605599468680236
77,-18.607844647788752
78,-0.0414228646765733
79,-0.04147921187969233
2,1,12,21, 0,12, 0.00,60.00,WinterDesignDay
7,-15.5
8,0.0
9,0.0
49,0.0
53,-18.605701157121477
77,-18.607944869722076
78,-0.04097497788121096
79,-0.041030716598940364
2,1,12,21, 0,13, 0.00,60.00,WinterDesignDay
7,-15.5
8,0.0
9,0.0
49,0.0
53,-18.60580174506836
77,-18.60804400795395
78,-0.04053192732737099
79,-0.04058706410902862
2,1,12,21, 0,14, 0.00,60.00,WinterDesignDay
7,-15.5
8,0.0
9,0.0
49,0.0
53,-18.60590124442758
77,-18.608142074187132
78,-0.0400936609758511
79,-0.04014820229756226
2,1,12,21, 0,15, 0.00,60.00,WinterDesignDay
7,-15.5
8,0.0
9,0.0
49,0.0
53,-18.605999666977063
77,-18.608239079998416
78,-0.03966012732535118
79,-0.03971407959950642
2,1,12,21, 0,16, 0.00,60.00,WinterDesignDay
7,-15.5
8,0.0
9,0.0
49,0.0
53,-18.606097024367408
77,-18.60833503683999
78,-0.03923127542983651
79,-0.03928464501132817
2,1,12,21, 0,17, 0.00,60.00,WinterDesignDay
7,-15.5
8,0.0
9,0.0
49,0.0
53,-18.606193328123233
77,-18.60842995604071
78,-0.038807054897805005
79,-0.038859848047448374
2,1,12,21, 0,18, 0.00,60.00,WinterDesignDay
7,-15.5
8,0.0
9,0.0
49,0.0
53,-18.606288589644507
77,-18.608523848807458
78,-0.03838741586276284
79,-0.038439638787246516
2,1,12,21, 0,19, 0.00,60.00,WinterDesignDay
7,-15.5
8,0.0
9,0.0
49,0.0
53,-18.606382820207962
77,-18.608616726226465
78,-0.03797230899746262
79,-0.03802396784658392
2,1,12,21, 0,20, 0.00,60.00,WinterDesignDay
7,-15.5
8,0.0
9,0.0
49,0.0
53,-18.606476030968373
77,-18.608708599264563
78,-0.037561685495975716
79,-0.03761278633890003
2,1,12,21, 0,21, 0.00,60.00,WinterDesignDay
7,-15.5
8,0.0
9,0.0
49,0.0
53,-18.60656823295989
77,-18.60879947877046
78,-0.03715549708178978
79,-0.03720604593262977
2,1,12,21, 0,22, 0.00,60.00,WinterDesignDay
7,-15.5
8,0.0
9,0.0
49,0.0
53,-18.606659437097324
77,-18.60888937547601
78,-0.03675369598348177
79,-0.03680369878152551
2,1,12,21, 0,23, 0.00,60.00,WinterDesignDay
7,-15.5
8,0.0
9,0.0
49,0.0
53,-18.60674965417749
77,-18.6089782999975
78,-0.03635623494973417
79,-0.03640569759026953
2,1,12,21, 0,24, 0.00,60.00,WinterDesignDay
7,-15.5
8,0.0
9,0.0
49,0.0
53,-18.60683889488042
77,-18.609066262836812
78,-0.03596306723579268
79,-0.036011995523322814
3,1,12,21, 0,WinterDesignDay
54,-18.55236649320474,-18.553463131570577,24,60,-18.55117234625301, 1,15
55,-17.458370474152748,-17.458392773120572,24,60,-17.458346192526022, 1,15
56,0.4998802923819676,0.4997703318541995, 1,15,0.49998145863872484,24,60
57,7.151612997489477,7.1516122699561695,24,60,7.151613789722545, 1,15
58,-18.55236649320474,-18.553463131570577,24,60,-18.55117234625301, 1,15
59,-17.458370474152748,-17.458392773120572,24,60,-17.458346192526022, 1,15
60,0.4998802923819676,0.4997703318541995, 1,15,0.49998145863872484,24,60
61,7.151612997489477,7.1516122699561695,24,60,7.151613789722545, 1,15
62,-18.550050490789527,-18.551147152682088,24,60,-18.548856318352556, 1,15
63,-17.411481387499606,-17.411503170839072,24,60,-17.411457667346067, 1,15
64,0.5067267018910976,0.5066197678360573, 1,15,0.5068250846208594,24,60
65,7.416653390759166,7.416652538162227,24,60,7.416654319176031, 1,15
66,-18.550050490789527,-18.551147152682088,24,60,-18.548856318352556, 1,15
67,-17.411481387499606,-17.411503170839072,24,60,-17.411457667346067, 1,15
68,0.5067267018910977,0.5066197678360573, 1,15,0.5068250846208594,24,60
69,7.416653390759166,7.416652538162227,24,60,7.416654319176031, 1,15
70,-18.610876752422158,-18.61211298593799,24,60,-18.60953055931759, 1,15
71,-18.61084953037523,-18.612089132131224,24,60,-18.60949966943222, 1,15
72,0.10842495754888894,0.10697127136818298, 1,15,0.10973635302854515,24,60
73,-18.665994154557534,-18.667111717605177,24,60,-18.664777220117124, 1,15
74,-20.31164621175207,-20.311663013142496,24,60,-20.311627916382545, 1,15
75,0.5884750522098838,0.5884318447953428,24,60,0.5885218276804685, 1,15
76,8.618727845078284,8.618727405162309,24,60,8.618728324112777, 1,15
10,0.0,0, 1,15,0, 1,15
11,10.,10, 1,15,10, 1,15
4,1,12
50,-30412800.0,-316800.0,21, 1,15,-316800.0,21, 1,15
51,30412800.0,316800.0,21, 1,15,316800.0,21, 1,15
52,0.0,0.0,21, 1,15,0.0,21, 1,15
1,RUN PERIOD 1,  37.62,-122.40,  -8.00,   2.00
2,1, 1, 1, 0, 1, 0.00,60.00,Tuesday
7,7.0125
8,1.25
9,1.25
49,0.0
53,11.966624176505341
77,12.072910479253624
78,-62.95065485361649
79,-59.39320296371778
2,1, 1, 1, 0, 2, 0.00,60.00,Tuesday
7,7.2
8,3.25
9,3.25
49,0.0
53,11.890862728631124
77,11.94501849755131
78,-19.040489236709
79,-28.193004384981776
2,1, 1, 1, 0, 3, 0.00,60.00,Tuesday
7,6.8875
8,3.375
9,3.375
49,0.0
53,11.818421997360183
77,11.892505834387702
78,-33.0623719106021
79,-27.4985582472169
2,1, 1, 1, 0, 4, 0.00,60.00,Tuesday
7,6.324999999999999
8,1.125
9,1.125
49,0.0
53,11.655089379185494
77,11.761961967007064
78,-63.4852880313921
79,-59.816297201517045
2,1, 1, 1, 0, 5, 0.00,60.00,Tuesday
7,5.0375
8,1.875
9,1.875
49,0.0
53,11.504498314998784
77,11.59795336001177
78,-51.557736586314675
79,-54.939124391233875
2,1, 1, 1, 0, 6, 0.00,60.00,Tuesday
7,4.4
8,3.0
9,3.0
49,0.0
53,11.363267099847487
77,11.461032021167476
78,-53.0676461605472
79,-52.047115502371454
2,1, 1, 1, 0, 7, 0.00,60.00,Tuesday
7,5.4624999999999995
8,3.0
9,3.0
49,0.0
53,11.216139301989847
77,11.315596584298284
78,-55.37049054884567
79,-55.07828226948419
2,1, 1, 1, 0, 8, 0.00,60.00,Tuesday
7,5.4125
8,3.0
9,3.0
49,0.0
53,11.272060874477003
77,11.230416382118044
78,40.640600632236115
79,12.573929793280541
2,1, 1, 1, 0, 9, 0.00,60.00,Tuesday
7,6.750000000000001
8,3.0
9,3.0
49,0.0
53,12.021411596436074
77,11.681171469918324
78,264.7835807447925
79,247.47546547675262
2,1, 1, 1, 0,10, 0.00,60.00,Tuesday
7,8.487499999999999
8,2.375
9,2.375
49,0.0
53,12.687466535112678
77,12.434188902515746
78,262.73213414668044
79,272.44538880379145
2,1, 1, 1, 0,11, 0.00,60.00,Tuesday
7,9.2125
8,0.75
9,0.75
49,0.0
53,13.059611557067798
77,12.979379902061673
78,126.72060084459012
79,147.6102733341376
2,1, 1, 1, 0,12, 0.00,60.00,Tuesday
7,9.775
8,0.0
9,0.0
49,0.0
53,13.210093350464227
77,13.189050720704236
78,54.50216878188776
79,54.90478156360527
2,1, 1, 1, 0,13, 0.00,60.00,Tuesday
7,10.375
8,0.0
9,0.0
49,0.0
53,13.394642383908081
77,13.343971978415809
78,70.8058131805153
79,65.58637328311983
2,1, 1, 1, 0,14, 0.00,60.00,Tuesday
7,10.9125
8,0.0
9,0.0
49,0.0
53,13.76284653535605
77,13.635606836061129
78,142.94508545576974
79,134.73150144165783
2,1, 1, 1, 0,15, 0.00,60.00,Tuesday
7,12.85
8,0.0
9,0.0
49,0.0
53,14.07647321209554
77,14.025280003628431
78,113.21797525561838
79,126.87467822600874
2,1, 1, 1, 0,16, 0.00,60.00,Tuesday
7,13.9
8,0.0
9,0.0
49,0.0
53,13.806831359790856
77,14.064241819735393
78,-108.58026045117128
79,-73.7643141646021
2,1, 1, 1, 0,17, 0.00,60.00,Tuesday
7,12.15
8,0.0
9,0.0
49,0.0
53,13.159235634168795
77,13.514348544729144
78,-236.46010640980174
79,-242.29770904825756
2,1, 1, 1, 0,18, 0.00,60.00,Tuesday
7,11.1
8,0.0
9,0.0
49,0.0
53,12.885551156197172
77,13.037697724783138
78,-112.85218286835696
79,-126.07390167998051
2,1, 1, 1, 0,19, 0.00,60.00,Tuesday
7,10.7875
8,0.0
9,0.0
49,0.0
53,12.727658755374486
77,12.818512822694707
78,-58.39368470025616
79,-62.388283188858864
2,1, 1, 1, 0,20, 0.00,60.00,Tuesday
7,10.6
8,0.0
9,0.0
49,0.0
53,12.645662115942477
77,12.703056081132015
78,-28.169100687898087
79,-31.678863554633562
2,1, 1, 1, 0,21, 0.00,60.00,Tuesday
7,9.5375
8,0.0
9,0.0
49,0.0
53,12.527453591450563
77,12.61286173954926
78,-47.3405965471436
79,-42.351219908662735
2,1, 1, 1, 0,22, 0.00,60.00,Tuesday
7,9.2125
8,0.0
9,0.0
49,0.0
53,12.418385023227247
77,12.48779621421064
78,-36.28365177853739
79,-40.389649522715075
2,1, 1, 1, 0,23, 0.00,60.00,Tuesday
7,8.4
8,0.0
9,0.0
49,0.0
53,12.274325429031244
77,12.373608362201484
78,-57.88553992316216
79,-52.22250795457095
2,1, 1, 1, 0,24, 0.00,60.00,Tuesday
7,7.1125
8,0.0
9,0.0
49,0.0
53,12.12517014433754
77,12.215184122436364
78,-50.998799517445605
79,-54.41399671979899
3,1, 1, 1, 0,Tuesday
54,12.726098731390108,10.867341605575184, 8,15,15.381801295612222,15,30
55,20.421625281673958,2.7345718590394106, 6,60,56.94993837171179,15,30
56,1.0273036992901043,0.5479553223985139,17,15,1.4743787714617305,11,15
57,5.012092418433784,1.5933517328894673, 8,45,7.693214522591875, 5,60
58,12.499030590922715,10.867190227258863, 8,15,14.194850672486526,15,60
59,13.307399739906261,2.7342944775828046, 6,60,45.41984994943213,10,30
60,0.8965122953217772,0.4232010269224055, 8,45,1.4111323816603527,10,15
61,4.732136867657451,1.7516406909952125, 8,15,7.4844577481501835,17,30
62,12.355733171671197,10.867190696668432, 8,15,14.19485067248713,15,60
63,8.950321508209091,2.79128382624523, 6,60,18.704377283907412,15,45
64,0.7931638684978317,0.24348773141099947, 9,30,0.992214708228083,17,45
65,4.421478250322915,1.0211965133576064, 9,30,7.847280691214406,17,30
66,12.451813171010523,10.867331860622544, 8,15,15.120050400197783,15,60
67,11.849477103869765,2.73457185903941, 6,60,46.667782001734246,15,60
68,0.8515209927467065,0.24348770360709818, 9,30,1.339789938067031,15,45
69,4.5891297368272035,1.0211964951968138, 9,30,7.826228164978298,16,60
70,12.472130539476938,11.632012926509617, 8,60,13.215116216828841,16,60
71,12.472153939015987,11.632012926509617, 9,15,13.215116216828841,17,15
72,0.9112689907327414,0.30146079740299037, 9,60,1.1686032300163012, 8,30
73,12.447371061418847,10.840038651677462, 8,15,14.483304082477217,15,30
74,10.688454432362084,-2.938439921701541, 8,30,34.84848017232243,14,45
75,0.86957866345778,0.3616908188033267,16,30,1.1887264467116145,17,45
76,5.214479393718111,1.1588135360790965, 9,15,8.98668919092114,17,30
10,0.0,0, 1,15,0, 1,15
11,3.,3, 1,15,3, 1,15
2,2, 1, 2, 0, 1, 0.00,60.00,Wednesday
7,8.075000000000001
8,0.0
9,0.0
49,0.0
53,12.065521170941413
77,12.117569823953367
78,-18.407887039901972
79,-23.32905431022577
2,2, 1, 2, 0, 2, 0.00,60.00,Wednesday
7,7.15
8,1.25
9,0.625
49,0.0
53,11.86000555042533
77,12.000194160448533
78,-91.61068344532075
79,-75.6922326850349
2,2, 1, 2, 0, 3, 0.00,60.00,Wednesday
7,5.7875
8,1.375
9,1.0
49,0.0
53,11.615693156110416
77,11.737045343895199
78,-79.61009591154564
79,-88.29795659797038
2,2, 1, 2, 0, 4, 0.00,60.00,Wednesday
7,4.5375
8,2.25
9,2.25
49,0.0
53,11.41379051333046
77,11.538109288272768
78,-75.46980002565446
79,-73.5993993833403
2,2, 1, 2, 0, 5, 0.00,60.00,Wednesday
7,4.9624999999999995
8,1.125
9,1.125
49,0.0
53,11.309682482862296
77,11.382948442288459
78,-28.60847606879522
79,-37.81817600021031
2,2, 1, 2, 0, 6, 0.00,60.00,Wednesday
7,6.6
8,0.0
9,0.0
49,0.0
53,11.324209225226454
77,11.358988307378715
78,3.365820673893035
79,1.6963954542225639
2,2, 1, 2, 0, 7, 0.00,60.00,Wednesday
7,7.575
8,0.0
9,0.0
49,0.0
53,11.325342815524298
77,11.363251978625891
78,-4.7092009689820475
79,-2.4874251019791833
2,2, 1, 2, 0, 8, 0.00,60.00,Wednesday
7,7.425
8,0.0
9,0.0
49,0.0
53,11.36316890537677
77,11.354914459167524
78,14.5787571401368
79,6.887616403821575
2,2, 1, 2, 0, 9, 0.00,60.00,Wednesday
7,9.325000000000001
8,0.0
9,0.0
49,0.0
53,11.731462885968106
77,11.534385432622791
78,118.10767255208833
79,105.72956888051593
2,2, 1, 2, 0,10, 0.00,60.00,Wednesday
7,11.287499999999998
8,0.0
9,0.0
49,0.0
53,12.145698074512694
77,11.937177230166593
78,163.3831473281898
79,163.61434453947072
2,2, 1, 2, 0,11, 0.00,60.00,Wednesday
7,13.075
8,0.625
9,0.0
49,0.0
53,12.557751400681415
77,12.36522960861258
78,167.16408696407711
79,161.03077617984363
2,2, 1, 2, 0,12, 0.00,60.00,Wednesday
7,13.9
8,1.625
9,0.625
49,0.0
53,12.928675703915191
77,12.809446589274293
78,132.88738643309793
79,146.83190706597694
2,2, 1, 2, 0,13, 0.00,60.00,Wednesday
7,13.9
8,2.0
9,1.0
49,0.0
53,13.383244648180677
77,13.196012549286827
78,186.07403163084166
79,169.4776939864312
2,2, 1, 2, 0,14, 0.00,60.00,Wednesday
7,13.9
8,2.0
9,1.0
49,0.0
53,13.583074794508828
77,13.573893623648862
78,56.133960313091926
79,81.54994743063929
2,2, 1, 2, 0,15, 0.00,60.00,Wednesday
7,12.837499999999999
8,2.0
9,1.0
49,0.0
53,13.600667214985073
77,13.65335599228758
78,14.908101985174465
79,17.12064210859721
2,2, 1, 2, 0,16, 0.00,60.00,Wednesday
7,12.575
8,1.375
9,1.0
49,0.0
53,13.40101641292875
77,13.602097434081657
78,-75.14695389697691
79,-55.549861131843514
2,2, 1, 2, 0,17, 0.00,60.00,Wednesday
7,11.7375
8,1.0
9,0.375
49,0.0
53,12.864318087625248
77,13.173707831560193
78,-198.17212940297367
79,-199.60711188173406
2,2, 1, 2, 0,18, 0.00,60.00,Wednesday
7,10.7875
8,2.25
9,1.25
49,0.0
53,12.584673854984196
77,12.750622383993573
78,-121.23373797172954
79,-125.49728378821126
2,2, 1, 2, 0,19, 0.00,60.00,Wednesday
7,11.287499999999998
8,1.125
9,0.75
49,0.0
53,12.396517128576235
77,12.489536264614932
78,-63.96284151446968
79,-73.66805387864878
2,2, 1, 2, 0,20, 0.00,60.00,Wednesday
7,11.7
8,0.0
9,0.0
49,0.0
53,12.349515021069518
77,12.387198314324904
78,-13.880131154124337
79,-19.34246728242645
2,2, 1, 2, 0,21, 0.00,60.00,Wednesday
7,10.6375
8,0.0
9,0.0
49,0.0
53,12.271284144506232
77,12.340713116410633
78,-34.34644223591927
79,-27.68590930825485
2,2, 1, 2, 0,22, 0.00,60.00,Wednesday
7,9.3125
8,0.0
9,0.0
49,0.0
53,12.072521632500306
77,12.189119283592316
78,-76.40629739082281
79,-71.75527711447141
2,2, 1, 2, 0,23, 0.00,60.00,Wednesday
7,9.2125
8,0.0
9,0.0
49,0.0
53,11.916304726926331
77,12.002261330068684
78,-50.419092972369015
79,-56.78716303151779
2,2, 1, 2, 0,24, 0.00,60.00,Wednesday
7,9.0875
8,0.0
9,0.0
49,0.0
53,11.789751337411952
77,11.877603849227198
78,-48.288790445625594
79,-46.547296644833935
3,2, 1, 2, 0,Wednesday
54,12.42351942714191,11.030532503174143, 4,60,14.908049637007272,13,60
55,17.894056506837565,1.189661851203511, 4,60,59.26185046213438,13,45
56,0.9760439883759818,0.3149948628650417, 8,60,1.525119271316508,13,45
57,6.032624286934808,1.6703207318145097, 2,60,14.151151474595826, 9,60
58,12.22061887368911,11.03053250329248, 4,60,13.778025313107696,14,15
59,11.594374083647537,1.1896618529453125, 4,60,29.986878338432984,10,30
60,0.8609186300150022,0.13710683293338644,15,60,1.193618833212508,10,45
61,5.778979330492413,1.7291330940009035, 2,60,14.132024710264906, 9,60
62,12.145022540687842,11.025696812054619, 5,30,13.778023186453886,14,15
63,9.352619175327776,1.1896618529453127, 4,60,21.3580148966638,13,60
64,0.8016013672083266,0.13710683293112205,15,60,0.9893901316254159, 5,15
65,5.438279944958058,1.729133096689147, 2,60,11.72572490081171, 9,60
66,12.2258855171834,11.025696812053601, 5,30,14.371842813022884,15,30
67,11.731606692137271,1.189661851203511, 4,60,37.11745007832286,15,60
68,0.8592131691568795,0.39219353162203624, 9,30,1.1742381380080642,15,45
69,5.588014550770565,1.6703207332996772, 2,60,11.725724900811743, 9,60
70,12.291022494664697,11.612734889256865, 8,60,12.928185097977606,16,60
71,12.29435701278728,11.612734889256865, 9,15,12.928185097977606,17,15
72,0.9004329173676155,0.15023707076702114,10,15,1.244024892298777, 5,30
73,12.184982382935052,11.020836071050619, 5,15,14.092645275873895,13,60
74,9.12485377416854,-4.782736174764302, 4,60,39.30505701985395,13,45
75,0.8583842916687257,0.22250514024934828, 9,30,1.1690846673481832, 3,15
76,6.615862492854753,1.4589629998038407,18,60,16.769167579237077, 9,45
10,0.0,0, 1,15,0, 1,15
11,4.,4, 1,15,4, 1,15
2,3, 1, 3, 0, 1, 0.00,60.00,Thursday
7,9.2125
8,0.0
9,0.0
49,0.0
53,11.776706886098257
77,11.801697070383195
78,1.929333519180048
79,-7.067949567795475
2,3, 1, 3, 0, 2, 0.00,60.00,Thursday
7,9.775
8,0.0
9,0.0
49,0.0
53,11.822388095573338
77,11.83223479627031
78,10.959690386517469
79,12.572779178991127
2,3, 1, 3, 0, 3, 0.00,60.00,Thursday
7,11.375
8,0.0
9,0.0
49,0.0
53,11.8173336498265
77,11.84495869017036
78,-5.742600973079246
79,-2.172989676253939
2,3, 1, 3, 0, 4, 0.00,60.00,Thursday
7,13.2625
8,0.0
9,0.0
49,0.0
53,11.936448713906554
77,11.868685050778534
78,33.213372990634355
79,25.088685471205586
2,3, 1, 3, 0, 5, 0.00,60.00,Thursday
7,13.212500000000002
8,0.0
9,0.0
49,0.0
53,11.983651273567217
77,11.948390651295398
78,15.838249666777177
79,20.991137294439962
2,3, 1, 3, 0, 6, 0.00,60.00,Thursday
7,12.425
8,0.0
9,0.0
49,0.0
53,11.941466418795152
77,11.958687065718244
78,-5.577863291673961
79,-3.7791060629845576
2,3, 1, 3, 0, 7, 0.00,60.00,Thursday
7,11.5125
8,0.0
9,0.0
49,0.0
53,11.876884394177335
77,11.92217481070231
78,-21.174326348913596
79,-19.285638155032586
2,3, 1, 3, 0, 8, 0.00,60.00,Thursday
7,11.1
8,0.0
9,0.0
49,0.0
53,11.887393434961918
77,11.877439873094183
78,2.960414183388769
79,-5.116522780658936
2,3, 1, 3, 0, 9, 0.00,60.00,Thursday
7,11.474999999999998
8,0.0
9,0.0
49,0.0
53,12.182977891070307
77,12.01006609418599
78,103.5697979057775
79,88.6763735960032
2,3, 1, 3, 0,10, 0.00,60.00,Thursday
7,12.7
8,0.0
9,0.0
49,0.0
53,12.670997451432216
77,12.433410140586963
78,197.47883178796306
79,190.06959929631347
2,3, 1, 3, 0,11, 0.00,60.00,Thursday
7,12.6125
8,0.0
9,0.0
49,0.0
53,12.963788465355668
77,12.882715406763689
78,102.2347247670456
79,124.10012845970317
2,3, 1, 3, 0,12, 0.00,60.00,Thursday
7,13.95
8,0.625
9,0.625
49,0.0
53,13.235984455841404
77,13.111606149815824
78,111.46236419762423
79,95.6619292778615
2,3, 1, 3, 0,13, 0.00,60.00,Thursday
7,15.375000000000002
8,2.25
9,1.625
49,0.0
53,13.63270334574764
77,13.489538430846414
78,147.51554561533803
79,150.06768359015985
2,3, 1, 3, 0,14, 0.00,60.00,Thursday
7,15.912500000000001
8,2.375
9,1.375
49,0.0
53,14.04337544654187
77,13.911355899124963
78,153.56996621165862
79,156.14626422837065
2,3, 1, 3, 0,15, 0.00,60.00,Thursday
7,16.1
8,1.375
9,1.0
49,0.0
53,14.08589779135505
77,14.147642231005364
78,6.28373171782764
79,27.542623723894785
2,3, 1, 3, 0,16, 0.00,60.00,Thursday
7,14.725
8,1.625
9,1.0
49,0.0
53,13.78311329319737
77,14.016925200647066
78,-106.12604533521196
79,-89.31658268567855
2,3, 1, 3, 0,17, 0.00,60.00,Thursday
7,13.9
8,2.0
9,1.625
49,0.0
53,13.216676772942975
77,13.537191573964044
78,-212.42628896414263
79,-213.57333577457615
2,3, 1, 3, 0,18, 0.00,60.00,Thursday
7,13.212500000000002
8,1.375
9,1.375
49,0.0
53,13.035575137564603
77,13.133740337475516
78,-72.14012887037597
79,-90.72270418518414
2,3, 1, 3, 0,19, 0.00,60.00,Thursday
7,12.425
8,1.0
9,1.0
49,0.0
53,12.941056017034041
77,13.01145307246131