Program Version,EnergyPlus, Version 9.6.0-f420c06a69, YMD=2022.05.12 06:24
1,5,Environment Title[],Latitude[deg],Longitude[deg],Time Zone[],Elevation[m]
2,8,Day of Simulation[],Month[],Day of Month[],DST Indicator[1=yes 0=no],Hour[],StartMinute[],EndMinute[],DayType
3,5,Cumulative Day of Simulation[],Month[],Day of Month[],DST Indicator[1=yes 0=no],DayType  ! When Daily Report Variables Requested
4,2,Cumulative Days of Simulation[],Month[]  ! When Monthly Report Variables Requested
5,1,Cumulative Days of Simulation[] ! When Run Period Report Variables Requested
6,1,Calendar Year of Simulation[] ! When Annual Report Variables Requested
7,1,Environment,Site Outdoor Air Drybulb Temperature [C] !Hourly
8,1,Environment,Site Total Sky Cover [] !Hourly
9,1,Environment,Site Opaque Sky Cover [] !Hourly
10,7,Environment,Site Daylight Saving Time Status [] !Daily [Value,Min,Hour,Minute,Max,Hour,Minute]
11,7,Environment,Site Day Type Index [] !Daily [Value,Min,Hour,Minute,Max,Hour,Minute]
49,1,ZONE ONE,Zone Total Internal Latent Gain Energy [J] !Hourly
50,9,TEST 352 MINUS,Other Equipment Total Heating Energy [J] !Monthly [Value,Min,Day,Hour,Minute,Max,Day,Hour,Minute]
51,9,TEST 352A,Other Equipment Total Heating Energy [J] !Monthly [Value,Min,Day,Hour,Minute,Max,Day,Hour,Minute]
52,9,ZONE ONE,Zone Other Equipment Total Heating Energy [J] !Monthly [Value,Min,Day,Hour,Minute,Max,Day,Hour,Minute]
53,1,ZONE ONE,Zone Mean Radiant Temperature [C] !Hourly
54,7,ZN001:WALL001,Surface Inside Face Temperature [C] !Daily [Value,Min,Hour,Minute,Max,Hour,Minute]
55,7,ZN001:WALL001,Surface Outside Face Temperature [C] !Daily [Value,Min,Hour,Minute,Max,Hour,Minute]
56,7,ZN001:WALL001,Surface Inside Face Convection Heat Transfer Coefficient [W/m2-K] !Daily [Value,Min,Hour,Minute,Max,Hour,Minute]
57,7,ZN001:WALL001,Surface Outside Face Convection Heat Transfer Coefficient [W/m2-K] !Daily [Value,Min,Hour,Minute,Max,Hour,Minute]
58,7,ZN001:WALL002,Surface Inside Face Temperature [C] !Daily [Value,Min,Hour,Minute,Max,Hour,Minute]
59,7,ZN001:WALL002,Surface Outside Face Temperature [C] !Daily [Value,Min,Hour,Minute,Max,Hour,Minute]
60,7,ZN001:WALL002,Surface Inside Face Convection Heat Transfer Coefficient [W/m2-K] !Daily [Value,Min,Hour,Minute,Max,Hour,Minute]
61,7,ZN001:WALL002,Surface Outside Face Convection Heat Transfer Coefficient [W/m2-K] !Daily [Value,Min,Hour,Minute,Max,Hour,Minute]
62,7,ZN001:WALL003,Surface Inside Face Temperature [C] !Daily [Value,Min,Hour,Minute,Max,Hour,Minute]
63,7,ZN001:WALL003,Surface Outside Face Temperature [C] !Daily [Value,Min,Hour,Minute,Max,Hour,Minute]
64,7,ZN001:WALL003,Surface Inside Face Convection Heat Transfer Coefficient [W/m2-K] !Daily [Value,Min,Hour,Minute,Max,Hour,Minute]
65,7,ZN001:WALL003,Surface Outside Face Convection Heat Transfer Coefficient [W/m2-K] !Daily [Value,Min,Hour,Minute,Max,Hour,Minute]
66,7,ZN001:WALL004,Surface Inside Face Temperature [C] !Daily [Value,Min,Hour,Minute,Max,Hour,Minute]
67,7,ZN001:WALL004,Surface Outside Face Temperature [C] !Daily [Value,Min,Hour,Minute,Max,Hour,Minute]
68,7,ZN001:WALL004,Surface Inside Face Convection Heat Transfer Coefficient [W/m2-K] !Daily [Value,Min,Hour,Minute,Max,Hour,Minute]
69,7,ZN001:WALL004,Surface Outside Face Convection Heat Transfer Coefficient [W/m2-K] !Daily [Value,Min,Hour,Minute,Max,Hour,Minute]
70,7,ZN001:FLR001,Surface Inside Face Temperature [C] !Daily [Value,Min,Hour,Minute,Max,Hour,Minute]
71,7,ZN001:FLR001,Surface Outside Face Temperature [C] !Daily [Value,Min,Hour,Minute,Max,Hour,Minute]
72,7,ZN001:FLR001,Surface Inside Face Convection Heat Transfer Coefficient [W/m2-K] !Daily [Value,Min,Hour,Minute,Max,Hour,Minute]
73,7,ZN001:ROOF001,Surface Inside Face Temperature [C] !Daily [Value,Min,Hour,Minute,Max,Hour,Minute]
74,7,ZN001:ROOF001,Surface Outside Face Temperature [C] !Daily [Value,Min,Hour,Minute,Max,Hour,Minute]
75,7,ZN001:ROOF001,Surface Inside Face Convection Heat Transfer Coefficient [W/m2-K] !Daily [Value,Min,Hour,Minute,Max,Hour,Minute]
76,7,ZN001:ROOF001,Surface Outside Face Convection Heat Transfer Coefficient [W/m2-K] !Daily [Value,Min,Hour,Minute,Max,Hour,Minute]
77,1,ZONE ONE,Zone Mean Air Temperature [C] !Hourly
78,1,ZONE ONE,Zone Air Heat Balance Surface Convection Rate [W] !Hourly
79,1,ZONE ONE,Zone Air Heat Balance Air Energy Storage Rate [W] !Hourly
End of Data Dictionary
1,DENVER CENTENNIAL  GOLDEN   N ANN CLG 1% CONDNS DB=>MWB,  37.62,-122.40,  -8.00,   2.00
2,1, 7,21, 0, 1, 0.00,60.00,SummerDesignDay
7,18.966
8,1.25
9,1.25
49,0.0
53,29.01884771711173
77,29.15875554528598
78,-85.68801157756765
79,-85.58302469035524
2,1, 7,21, 0, 2, 0.00,60.00,SummerDesignDay
7,18.244
8,3.25
9,3.25
49,0.0
53,28.77327852344026
77,28.913054151016663
78,-84.00675562558769
79,-84.41008846277856
2,1, 7,21, 0, 3, 0.00,60.00,SummerDesignDay
7,17.731
8,3.375
9,3.375
49,0.0
53,28.53393261104575
77,28.673339104698155
78,-82.36638060841562
79,-82.5616203588418
2,1, 7,21, 0, 4, 0.00,60.00,SummerDesignDay
7,17.275000000000002
8,1.125
9,1.125
49,0.0
53,28.295120216814606
77,28.43580572177013
78,-82.80934542385252
79,-82.69277973884634
2,1, 7,21, 0, 5, 0.00,60.00,SummerDesignDay
7,16.913999999999998
8,1.875
9,1.875
49,0.0
53,28.058539419535666
77,28.198537284314007
78,-81.62034075545247
79,-81.90870929204706
2,1, 7,21, 0, 6, 0.00,60.00,SummerDesignDay
7,16.990000000000002
8,3.0
9,3.0
49,0.0
53,27.99063673108083
77,28.03159093560314
78,-1.2417192771299668
79,-22.00707454385747
2,1, 7,21, 0, 7, 0.00,60.00,SummerDesignDay
7,17.769
8,3.0
9,3.0
49,0.0
53,28.332412585582418
77,28.22335870770226
78,102.70330986088062
79,100.64322939191834
2,1, 7,21, 0, 8, 0.00,60.00,SummerDesignDay
7,19.783
8,3.0
9,3.0
49,0.0
53,28.68440505234996
77,28.532474741626217
78,114.40972916050185
79,111.38483671617541
2,1, 7,21, 0, 9, 0.00,60.00,SummerDesignDay
7,22.557
8,3.0
9,3.0
49,0.0
53,29.08614002127217
77,28.90743474119197
78,146.66662903158186
79,142.53820585883943
2,1, 7,21, 0,10, 0.00,60.00,SummerDesignDay
7,25.255000000000003
8,2.375
9,2.375
49,0.0
53,29.531646191962437
77,29.347526511023304
78,152.3858592432358
79,153.38247304409055
2,1, 7,21, 0,11, 0.00,60.00,SummerDesignDay
7,27.649
8,0.75
9,0.75
49,0.0
53,29.931534897570664
77,29.767561711776857
78,136.24214576815334
79,138.82440061663274
2,1, 7,21, 0,12, 0.00,60.00,SummerDesignDay
7,29.454
8,0.0
9,0.0
49,0.0
53,30.250197783272693
77,30.120197505385878
78,105.63060591103618
79,109.94697038898688
2,1, 7,21, 0,13, 0.00,60.00,SummerDesignDay
7,30.784
8,0.0
9,0.0
49,0.0
53,30.548382691618613
77,30.41025630050566
78,108.64313526742718
79,103.89152584571235
2,1, 7,21, 0,14, 0.00,60.00,SummerDesignDay
7,31.715
8,0.0
9,0.0
49,0.0
53,30.901310233766623
77,30.762942348032446
78,124.18226443324298
79,125.6174482752871
2,1, 7,21, 0,15, 0.00,60.00,SummerDesignDay
7,32.0
8,0.0
9,0.0
49,0.0
53,31.166813811513954
77,31.08478014837401
78,92.949734101042
79,98.10645127717908
2,1, 7,21, 0,16, 0.00,60.00,SummerDesignDay
7,31.43
8,0.0
9,0.0
49,0.0
53,31.28752692260266
77,31.287350427371177
78,44.03269126333129
79,50.85530211863494
2,1, 7,21, 0,17, 0.00,60.00,SummerDesignDay
7,30.328
8,0.0
9,0.0
49,0.0
53,31.268971945962825
77,31.351026508430873
78,4.977108154431533
79,8.286015888069661
2,1, 7,21, 0,18, 0.00,60.00,SummerDesignDay
7,28.922
8,0.0
9,0.0
49,0.0
53,31.140409226900225
77,31.309234344428134
78,-44.06184287403579
79,-34.36906080872022
2,1, 7,21, 0,19, 0.00,60.00,SummerDesignDay
7,26.927
8,0.0
9,0.0
49,0.0
53,30.72665284484328
77,31.01188758879737
78,-172.48938438947278
79,-153.1675585882553
2,1, 7,21, 0,20, 0.00,60.00,SummerDesignDay
7,25.027
8,0.0
9,0.0
49,0.0
53,30.24211691652109
77,30.44395166159267
78,-166.41795124260167
79,-183.6504811537102
2,1, 7,21, 0,21, 0.00,60.00,SummerDesignDay
7,23.544999999999998
8,0.0
9,0.0
49,0.0
53,29.982479014634276
77,30.11119427938359
78,-85.63503261589116
79,-88.34611828292743
2,1, 7,21, 0,22, 0.00,60.00,SummerDesignDay
7,22.177
8,0.0
9,0.0
49,0.0
53,29.748284282080668
77,29.876693173042963
78,-80.74950325448317
79,-80.37267955109036
2,1, 7,21, 0,23, 0.00,60.00,SummerDesignDay
7,20.999000000000002
8,0.0
9,0.0
49,0.0
53,29.51163382929922
77,29.642540330277434
78,-80.8244533660449
79,-80.9558342813284
2,1, 7,21, 0,24, 0.00,60.00,SummerDesignDay
7,19.935000000000002
8,0.0
9,0.0
49,0.0
53,29.269303649339065
77,29.405501973431388
78,-83.75137086326158
79,-83.24258041064095
3,1, 7,21, 0,SummerDesignDay
54,29.589045406353346,27.430517936413732, 6,15,31.664517758089556,15,45
55,27.559897164007698,15.272815441785797, 5,60,47.63786021112659,13,45
56,0.9973852163334697,0.2938526460149462,17,45,1.2277833207600766,13,60
57,9.78145231431199,9.648595965399325,16,30,10.100186745174682, 7,15
58,29.70396766901757,27.438001174849507, 6,15,31.395740603613536,16,30
59,30.18090184048518,15.444904957164194, 5,60,53.602260034264404, 9,45
60,1.0156476973605855,0.269045035477499,17,30,1.380098124812314, 9,45
61,11.641192938947986,11.426195477028388,12,15,11.97568312783326,19,60
62,29.50841537407212,27.43794223329325, 6,15,31.39582047720854,17,60
63,25.611961680100702,15.444904957164194, 5,60,35.71249463376594,14,60
64,0.8278707875562051,0.269045035477499,17,30,1.1204664065261178, 6,15
65,11.651023500314906,11.47481061173962,19,15,12.139864729449595, 6,45
66,29.693089106259148,27.437888963149188, 6,15,32.525167618391244,16,60
67,30.03628581163119,15.44490495716419, 5,60,61.33900872637468,17,15
68,1.0137286680743007,0.2940418744193284, 9,60,1.389716367860958,17,15
69,11.647548347994716,11.426231797575028,14,45,12.023370698036784, 7,15
70,29.67423113340199,28.56151942528756, 7,60,30.771918368591603,19,15
71,29.674214612568907,28.56151942528756, 8,15,30.771918368591603,19,30
72,0.9239893875487257,0.2785407654394631, 9,15,1.3294663703652412, 6,30
73,29.74815721590359,27.697182009449367, 6,15,31.67982238651119,16,15
74,32.36252902067638,12.872659503839047, 5,60,61.85956630974716,13,45
75,0.813083498914385,0.20021409050899425, 7,60,1.1455070576490984,20,15
76,13.389092839502185,13.087086996595186,17,45,14.020189926057899,19,45
10,0.0,0, 1,15,0, 1,15
11,9.,9, 1,15,9, 1,15
4,1, 7
50,-30412800.0,-316800.0,21, 1,15,-316800.0,21, 1,15
51,30412800.0,316800.0,21, 1,15,316800.0,21, 1,15
52,0.0,0.0,21, 1,15,0.0,21, 1,15
1,DENVER CENTENNIAL  GOLDEN   N ANN HTG 99% CONDNS DB,  37.62,-122.40,  -8.00,   2.00
2,1,12,21, 0, 1, 0.00,60.00,WinterDesignDay
7,-15.5
8,1.25
9,1.25
49,0.0
53,-18.354272632934006
77,-18.356814094290314
78,-0.040236814989720315
79,-0.04030498899785185
2,1,12,21, 0, 2, 0.00,60.00,WinterDesignDay
7,-15.5
8,3.25
9,3.25
49,0.0
53,-18.354371801956503
77,-18.356911412602024
78,-0.039695745619510614
79,-0.03976300419160013
2,1,12,21, 0, 3, 0.00,60.00,WinterDesignDay
7,-15.5
8,3.375
9,3.375
49,0.0
53,-18.35446963614834
77,-18.357007422212806
78,-0.039161941236823594
79,-0.039228296632495524
2,1,12,21, 0, 4, 0.00,60.00,WinterDesignDay
7,-15.5
8,1.125
9,1.125
49,0.0
53,-18.35456615347051
77,-18.357102140696103
78,-0.03863530463474829
79,-0.038700768937897076
2,1,12,21, 0, 5, 0.00,60.00,WinterDesignDay
7,-15.5
8,1.875
9,1.875
49,0.0
53,-18.35466137164255
77,-18.357195585390194
78,-0.038115739902781165
79,-0.03818032503784575
2,1,12,21, 0, 6, 0.00,60.00,WinterDesignDay
7,-15.5
8,3.0
9,3.0
49,0.0
53,-18.354755308145705
77,-18.357287773401293
78,-0.03760315239621237
79,-0.037666870137361565
2,1,12,21, 0, 7, 0.00,60.00,WinterDesignDay
7,-15.5
8,3.0
9,3.0
49,0.0
53,-18.354847980226218
77,-18.357378721606665
78,-0.03709744873922727
79,-0.03716031069177528
2,1,12,21, 0, 8, 0.00,60.00,WinterDesignDay
7,-15.5
8,3.0
9,3.0
49,0.0
53,-18.354939404898396
77,-18.357468446657652
78,-0.03659853677904268
79,-0.036660554401591904
2,1,12,21, 0, 9, 0.00,60.00,WinterDesignDay
7,-15.5
8,3.0
9,3.0
49,0.0
53,-18.355029598947766
77,-18.35755696498265
78,-0.036106325593117106
79,-0.036167510192246274
2,1,12,21, 0,10, 0.00,60.00,WinterDesignDay
7,-15.5
8,2.375
9,2.375
49,0.0
53,-18.355118578934174
77,-18.357644292790106
78,-0.03562072547065265
79,-0.03568108819923338
2,1,12,21, 0,11, 0.00,60.00,WinterDesignDay
7,-15.5
8,0.75
9,0.75
49,0.0
53,-18.355206361194746
77,-18.35773044607143
78,-0.03514164788430563
79,-0.0352011997555569
2,1,12,21, 0,12, 0.00,60.00,WinterDesignDay
7,-15.5
8,0.0
9,0.0
49,0.0
53,-18.355292961846928
77,-18.357815440603833
78,-0.034669005488173976
79,-0.03472775735002881
2,1,12,21, 0,13, 0.00,60.00,WinterDesignDay
7,-15.5
8,0.0
9,0.0
49,0.0
53,-18.35537839679141
77,-18.357899291953245
78,-0.03420271209079706
79,-0.03426067467733204
2,1,12,21, 0,14, 0.00,60.00,WinterDesignDay
7,-15.5
8,0.0
9,0.0
49,0.0
53,-18.355462681715053
77,-18.357982015477077
78,-0.0337426826521674
79,-0.03379986652902814
2,1,12,21, 0,15, 0.00,60.00,WinterDesignDay
7,-15.5
8,0.0
9,0.0
49,0.0
53,-18.355545832093767
77,-18.35806362632701
78,-0.033288833264077944
79,-0.03334524886811386
2,1,12,21, 0,16, 0.00,60.00,WinterDesignDay
7,-15.5
8,0.0
9,0.0
49,0.0
53,-18.355627863195302
77,-18.35814413945171
78,-0.032841081132191974
79,-0.032896738751147625
2,1,12,21, 0,17, 0.00,60.00,WinterDesignDay
7,-15.5
8,0.0
9,0.0
49,0.0
53,-18.355708790082097
77,-18.35822356959956
78,-0.032399344565884114
79,-0.03245425435560464
2,1,12,21, 0,18, 0.00,60.00,WinterDesignDay
7,-15.5
8,0.0
9,0.0
49,0.0
53,-18.355788627614018
77,-18.358301931321332
78,-0.031963542960189884
79,-0.03201771495124508
2,1,12,21, 0,19, 0.00,60.00,WinterDesignDay
7,-15.5
8,0.0
9,0.0
49,0.0
53,-18.355867390451056
77,-18.358379238972784
78,-0.03153359677826639
79,-0.031587040860177995
2,1,12,21, 0,20, 0.00,60.00,WinterDesignDay
7,-15.5
8,0.0
9,0.0
49,0.0
53,-18.35594509305603
77,-18.358455506717267
78,-0.031109427549822932
79,-0.031162153468838896
2,1,12,21, 0,21, 0.00,60.00,WinterDesignDay
7,-15.5
8,0.0
9,0.0
49,0.0
53,-18.356021749697234
77,-18.358530748528295
78,-0.030690957849542677
79,-0.030742975240575853
2,1,12,21, 0,22, 0.00,60.00,WinterDesignDay
7,-15.5
8,0.0
9,0.0
49,0.0
53,-18.35609737445107
77,-18.358604978192083
78,-0.030278111276868636
79,-0.030329429637797736
2,1,12,21, 0,23, 0.00,60.00,WinterDesignDay
7,-15.5
8,0.0
9,0.0
49,0.0
53,-18.356171981204575
77,-18.35867820931002
78,-0.029870812454211748
79,-0.029921441152508246
2,1,12,21, 0,24, 0.00,60.00,WinterDesignDay
7,-15.5
8,0.0
9,0.0
49,0.0
53,-18.356245583658
77,-18.35875045530114
78,-0.029468987004709124
79,-0.029518935290033278
3,1,12,21, 0,WinterDesignDay
54,-18.29484332674134,-18.295747127833934,24,60,-18.293838398325843, 1,15
55,-17.461667360411308,-17.46169461701873,24,60,-17.461637054124473, 1,15
56,0.5210968951454943,0.5209639765698261, 1,15,0.5212165884150357,24,60
57,7.1515059151717955,7.151505028410659,24,60,7.1515069011704036, 1,15
58,-18.29484332674134,-18.295747127833934,24,60,-18.293838398325843, 1,15
59,-17.461667360411308,-17.46169461701873,24,60,-17.461637054124473, 1,15
60,0.5210968951454943,0.5209639765698261, 1,15,0.5212165884150357,24,60
61,7.1515059151717955,7.151505028410659,24,60,7.1515069011704036, 1,15
62,-18.291507116355934,-18.292410963636637,24,60,-18.29050213673687, 1,15
63,-17.415118087466144,-17.415144721931828,24,60,-17.415088472929654, 1,15
64,0.5301394770779574,0.5300111922789535, 1,15,0.5302549993487985,24,60
65,7.416511687952507,7.4165106484165255,24,60,7.4165128438202546, 1,15
66,-18.291507116355934,-18.292410963636637,24,60,-18.29050213673687, 1,15
67,-17.415118087466144,-17.415144721931828,24,60,-17.415088472929654, 1,15
68,0.5301394770779576,0.5300111922789535, 1,15,0.5302549993487985,24,60
69,7.416511687952507,7.4165106484165255,24,60,7.4165128438202546, 1,15
70,-18.3613605505362,-18.36242139998652,24,60,-18.360180960337964, 1,15
71,-18.36133692481251,-18.362401375316757,24,60,-18.36015333051179, 1,15
72,0.11566893553731505,0.11426820977628965, 1,15,0.11690873210075718,24,60
73,-18.42381493751949,-18.424757239297346,24,60,-18.422767198072922, 1,15
74,-20.307939422078768,-20.307953535813766,24,60,-20.3079237290832, 1,15
75,0.61423678944245,0.6142219651448382,24,60,0.6142530281625576, 1,15
76,8.618824676322477,8.618824306223965,24,60,8.618825087834123, 1,15
10,0.0,0, 1,15,0, 1,15
11,10.,10, 1,15,10, 1,15
4,1,12
50,-30412800.0,-316800.0,21, 1,15,-316800.0,21, 1,15
51,30412800.0,316800.0,21, 1,15,316800.0,21, 1,15
52,0.0,0.0,21, 1,15,0.0,21, 1,15
1,RUN PERIOD 1,  37.62,-122.40,  -8.00,   2.00
2,1, 1, 1, 0, 1, 0.00,60.00,Tuesday
7,7.0125
8,1.25
9,1.25
49,0.0
53,12.118176114757002
77,12.242397798084012
78,-74.02624185207986
79,-70.77819767574152
2,1, 1, 1, 0, 2, 0.00,60.00,Tuesday
7,7.2
8,3.25
9,3.25
49,0.0
53,12.023186072680826
77,12.091833174724364
78,-24.366560100026373
79,-34.302753003446085
2,1, 1, 1, 0, 3, 0.00,60.00,Tuesday
7,6.8875
8,3.375
9,3.375
49,0.0
53,11.928592657962696
77,12.020385166859649
78,-43.02511904561354
79,-36.54193180751004
2,1, 1, 1, 0, 4, 0.00,60.00,Tuesday
7,6.324999999999999
8,1.125
9,1.125
49,0.0
53,11.731276441937817
77,11.857893678015927
78,-76.97750095720336
79,-72.93401422738575
2,1, 1, 1, 0, 5, 0.00,60.00,Tuesday
7,5.0375
8,1.875
9,1.875
49,0.0
53,11.542228252076063
77,11.65660559297082
78,-65.35981842141483
79,-68.79197051212701
2,1, 1, 1, 0, 6, 0.00,60.00,Tuesday
7,4.4
8,3.0
9,3.0
49,0.0
53,11.366777573054721
77,11.483780299390569
78,-65.3240816955485
79,-64.67263340463083
2,1, 1, 1, 0, 7, 0.00,60.00,Tuesday
7,5.4624999999999995
8,3.0
9,3.0
49,0.0
53,11.19773832470558
77,11.31187387392724
78,-62.44693569104294
79,-62.907520302257474
2,1, 1, 1, 0, 8, 0.00,60.00,Tuesday
7,5.4125
8,3.0
9,3.0
49,0.0
53,11.305313107914298
77,11.234937044150696
78,69.8885838906921
79,32.05752407297341
2,1, 1, 1, 0, 9, 0.00,60.00,Tuesday
7,6.750000000000001
8,3.0
9,3.0
49,0.0
53,12.249271887869567
77,11.86237065010885
78,352.65214490661776
79,333.2614363313487
2,1, 1, 1, 0,10, 0.00,60.00,Tuesday
7,8.487499999999999
8,2.375
9,2.375
49,0.0
53,13.062029053058163
77,12.825945982603024
78,320.63933009233773
79,336.3130543727777
2,1, 1, 1, 0,11, 0.00,60.00,Tuesday
7,9.2125
8,0.75
9,0.75
49,0.0
53,13.491608154928528
77,13.467142339429184
78,139.39770196896532
79,165.72700245784793
2,1, 1, 1, 0,12, 0.00,60.00,Tuesday
7,9.775
8,0.0
9,0.0
49,0.0
53,13.644031304564518
77,13.678689291116337
78,50.441546681644674
79,50.57255355762551
2,1, 1, 1, 0,13, 0.00,60.00,Tuesday
7,10.375
8,0.0
9,0.0
49,0.0
53,13.852152379030787
77,13.834750760033799
78,80.26880851789554
79,71.95807324577852
2,1, 1, 1, 0,14, 0.00,60.00,Tuesday
7,10.9125
8,0.0
9,0.0
49,0.0
53,14.312634084465333
77,14.19560878914519
78,182.3384561936657
79,171.00895568080753
2,1, 1, 1, 0,15, 0.00,60.00,Tuesday
7,12.85
8,0.0
9,0.0
49,0.0
53,14.724888630587502
77,14.702291202621714
78,149.30530060883189
79,166.54207254786908
2,1, 1, 1, 0,16, 0.00,60.00,Tuesday
7,13.9
8,0.0
9,0.0
49,0.0
53,14.42081348874241
77,14.756946422620079
78,-144.33480606247304
79,-97.57202501131131
2,1, 1, 1, 0,17, 0.00,60.00,Tuesday
7,12.15
8,0.0
9,0.0
49,0.0
53,13.599743852568285
77,14.030236686776743
78,-306.44978353582667
79,-315.9299897180502
2,1, 1, 1, 0,18, 0.00,60.00,Tuesday
7,11.1
8,0.0
9,0.0
49,0.0
53,13.250884460336945
77,13.425198252053798
78,-136.59511987130907
79,-154.64180240684124
2,1, 1, 1, 0,19, 0.00,60.00,Tuesday
7,10.7875
8,0.0
9,0.0
49,0.0
53,13.059254252161633
77,13.165989060850684
78,-69.07882615837485
79,-73.28581767299079
2,1, 1, 1, 0,20, 0.00,60.00,Tuesday
7,10.6
8,0.0
9,0.0
49,0.0
53,12.956226214495008
77,13.027114657664875
78,-34.662447532055516
79,-38.77358977930206
2,1, 1, 1, 0,21, 0.00,60.00,Tuesday
7,9.5375
8,0.0
9,0.0
49,0.0
53,12.808223467416322
77,12.913039077769685
78,-60.055836078024186
79,-53.799706618600155
2,1, 1, 1, 0,22, 0.00,60.00,Tuesday
7,9.2125
8,0.0
9,0.0
49,0.0
53,12.672250133596819
77,12.756547829403615
78,-44.42874438283077
79,-49.77586299104982
2,1, 1, 1, 0,23, 0.00,60.00,Tuesday
7,8.4
8,0.0
9,0.0
49,0.0
53,12.496147388615043
77,12.61579161844911
78,-71.60150741623417
79,-64.56748944377638
2,1, 1, 1, 0,24, 0.00,60.00,Tuesday
7,7.1125
8,0.0
9,0.0
49,0.0
53,12.307857863530744
77,12.418369476913075
78,-64.54404420439134
79,-68.42480969194747
3,1, 1, 1, 0,Tuesday
54,13.098760607873068,10.725286803788089, 8,15,16.560863048009537,15,30
55,20.380982429711693,2.82272315080203, 6,60,56.64472144811253,15,30
56,1.144482471324043,0.6949062093831911,17,15,1.6299432996065122,11,15
57,5.0073836663051425,1.6185926613261057, 8,45,7.7005042144220806, 5,60
58,12.774694311742158,10.725058407752998, 8,15,14.876278941653169,15,60
59,13.315944731994604,2.8223872319597327, 6,60,45.16287628271684,10,30
60,0.9844771405584959,0.3880108317005117, 8,45,1.5540859070095645,10,15
61,4.728424952965955,1.7236745689246393, 8,15,7.49191073429727,17,30
62,12.568642323046873,10.725059255551662, 8,15,14.876278941654967,15,60
63,8.99870590774969,2.8760935909812373, 6,60,18.673952797920524,15,45
64,0.8484838498544237,0.2692399450491882,12,30,1.084290841959014,17,45
65,4.417957546210506,0.9370321830777026, 9,30,7.855402001740139,17,30
66,12.70598606795975,10.725270923352783, 8,15,16.19827577680665,15,60
67,11.87477875426768,2.8227231508020307, 6,60,46.418311878576084,15,60
68,0.9215279897272675,0.2665410930680767,11,60,1.4826338471737248,15,45
69,4.584898385639694,0.9370321547793669, 9,30,7.823626966014611,16,60
70,12.74995070265158,11.714690907247167, 8,60,13.677732016082803,17,15
71,12.749970502056437,11.714690907247167, 9,15,13.677732016082803,17,30
72,0.9844149385106448,0.3342145899796817,18,15,1.2470200166325465, 8,30
73,12.721798325636087,10.82043851374926, 8,15,15.092882156537197,15,30
74,10.692989120374342,-2.9391469863694017, 8,30,34.85656949447259,14,45
75,0.8709845434021052,0.15014318604233573,16,30,1.2538004672136422,17,45
76,5.21465159163593,1.1583205299499548, 9,15,8.987082750298141,17,30
10,0.0,0, 1,15,0, 1,15
11,3.,3, 1,15,3, 1,15
2,2, 1, 2, 0, 1, 0.00,60.00,Wednesday
7,8.075000000000001
8,0.0
9,0.0
49,0.0
53,12.23380952229048
77,12.296708022640388
78,-21.203646497949883
79,-27.875303253520457
2,2, 1, 2, 0, 2, 0.00,60.00,Wednesday
7,7.15
8,1.25
9,0.625
49,0.0
53,11.991640760686197
77,12.156638127190478
78,-110.50070075550494
79,-91.15936793978972
2,2, 1, 2, 0, 3, 0.00,60.00,Wednesday
7,5.7875
8,1.375
9,1.0
49,0.0
53,11.698895214376495
77,11.841949690658538
78,-94.47747288806445
79,-104.94217405323438
2,2, 1, 2, 0, 4, 0.00,60.00,Wednesday
7,4.5375
8,2.25
9,2.25
49,0.0
53,11.453559807392969
77,11.602498527434188
78,-92.18320999386205
79,-89.60858249922273
2,2, 1, 2, 0, 5, 0.00,60.00,Wednesday
7,4.9624999999999995
8,1.125
9,1.125
49,0.0
53,11.324386244229572
77,11.41359269439723
78,-34.47092235584798
79,-45.7453546721911
2,2, 1, 2, 0, 6, 0.00,60.00,Wednesday
7,6.6
8,0.0
9,0.0
49,0.0
53,11.337995087160655
77,11.383237854624923
78,3.055515341154278
79,1.1064666736250315
2,2, 1, 2, 0, 7, 0.00,60.00,Wednesday
7,7.575
8,0.0
9,0.0
49,0.0
53,11.33654346293975
77,11.384971764009418
78,-7.08565759825931
79,-4.382238097373428
2,2, 1, 2, 0, 8, 0.00,60.00,Wednesday
7,7.425
8,0.0
9,0.0
49,0.0
53,11.393959852316693
77,11.377420062415771
78,23.68069276728318
79,12.632534302552592
2,2, 1, 2, 0, 9, 0.00,60.00,Wednesday
7,9.325000000000001
8,0.0
9,0.0
49,0.0
53,11.869152719712275
77,11.630297704997682
78,161.18116439699702
79,145.36355358687072
2,2, 1, 2, 0,10, 0.00,60.00,Wednesday
7,11.287499999999998
8,0.0
9,0.0
49,0.0
53,12.383473599900231
77,12.16247988172196
78,208.30026094805402
79,210.8127523004495
2,2, 1, 2, 0,11, 0.00,60.00,Wednesday
7,13.075
8,0.625
9,0.0
49,0.0
53,12.879314930943057
77,12.6909987659709
78,202.53053566616137
79,195.13620445010469
2,2, 1, 2, 0,12, 0.00,60.00,Wednesday
7,13.9
8,1.625
9,0.625
49,0.0
53,13.314965928917216
77,13.222711550194228
78,154.05482156308454
79,172.38008900424148
2,2, 1, 2, 0,13, 0.00,60.00,Wednesday
7,13.9
8,2.0
9,1.0
49,0.0
53,13.847835115347086
77,13.67382830854212
78,223.39589894710065
79,201.30135044797427
2,2, 1, 2, 0,14, 0.00,60.00,Wednesday
7,13.9
8,2.0
9,1.0
49,0.0
53,14.103394637745751
77,14.129853789164372
78,66.86240154506174
79,97.87891352704908
2,2, 1, 2, 0,15, 0.00,60.00,Wednesday
7,12.837499999999999
8,2.0
9,1.0
49,0.0
53,14.141569788409075
77,14.234637708148076
78,23.859534681677
79,26.35458786515109
2,2, 1, 2, 0,16, 0.00,60.00,Wednesday
7,12.575
8,1.375
9,1.0
49,0.0
53,13.919713146422886
77,14.176967427683959
78,-98.47382094892424
79,-71.85377531477617
2,2, 1, 2, 0,17, 0.00,60.00,Wednesday
7,11.7375
8,1.0
9,0.375
49,0.0
53,13.237638090171579
77,13.613450401801424
78,-257.30308930387866
79,-260.1601533123435
2,2, 1, 2, 0,18, 0.00,60.00,Wednesday
7,10.7875
8,2.25
9,1.25
49,0.0
53,12.888005647365219
77,13.076985397608913
78,-145.58059388354914
79,-153.1019991429946
2,2, 1, 2, 0,19, 0.00,60.00,Wednesday
7,11.287499999999998
8,1.125
9,0.75
49,0.0
53,12.670489944177177
77,12.775520283692297
78,-71.0643607073559
79,-82.44215448743348
2,2, 1, 2, 0,20, 0.00,60.00,Wednesday
7,11.7
8,0.0
9,0.0
49,0.0
53,12.614084199920107
77,12.66188555720098
78,-16.28393315700101
79,-21.98200034053037
2,2, 1, 2, 0,21, 0.00,60.00,Wednesday
7,10.6375
8,0.0
9,0.0
49,0.0
53,12.513174730532874
77,12.600210841735066
78,-44.842577551358104
79,-36.702032018057615
2,2, 1, 2, 0,22, 0.00,60.00,Wednesday
7,9.3125
8,0.0
9,0.0
49,0.0
53,12.275151658695258
77,12.412249019626001
78,-91.66850400688338
79,-86.72502078759106
2,2, 1, 2, 0,23, 0.00,60.00,Wednesday
7,9.2125
8,0.0
9,0.0
49,0.0
53,12.090342488860665
77,12.191637618394106
78,-58.47345755563387
79,-66.14690591807523
2,2, 1, 2, 0,24, 0.00,60.00,Wednesday
7,9.0875
8,0.0
9,0.0
49,0.0
53,11.940560116830138
77,12.04552894424945
78,-57.466031140757714
79,-55.15404299204649
3,2, 1, 2, 0,Wednesday
54,12.724920365797184,10.91680351601169, 4,60,15.981525392711804,13,60
55,17.884110550725445,1.3411203261853395, 4,60,58.9467315479952,13,45
56,1.0871900981758023,0.3550128351391693, 8,60,1.6915508609411678,13,45
57,6.024820998608625,1.6409906653871502, 2,60,14.151785189082947, 9,60
58,12.43512593277748,10.916803516275346, 4,60,14.368751487060646,14,15
59,11.626276046259898,1.3411203288579847, 4,60,29.89467125877954,10,30
60,0.9538856326006898,0.4378773031332342,15,45,1.3141269457222131,10,45
61,5.771804011023022,1.6994760883777749, 2,60,14.13259940190002, 9,60
62,12.326208983035137,10.91374287317408, 5,15,14.368747879982307,14,15
63,9.397630601245421,1.3411203288579847, 4,60,21.285115435973843,13,60
64,0.8806826781649394,0.43787730315685014,15,45,1.0998108044658386, 5,15
65,5.431470099613587,1.6994760948161711, 2,60,11.735090721842754, 9,60
66,12.441901240140508,10.91374287320263, 5,15,15.218565600944734,15,30
67,11.757925071718295,1.34112032618534, 4,60,36.95104232869791,15,60
68,0.945179532460207,0.48552407019292565, 9,45,1.3047701521739938,15,45
69,5.580991159076408,1.6409906691652585, 2,60,11.735090721842754, 9,60
70,12.532647239737187,11.693344003581231, 8,60,13.324652915864172,16,60
71,12.53647699188758,11.693344003581231, 9,15,13.324652915864172,17,15
72,0.9700247712817224,0.2858431501263699,10,15,1.3290598399594062, 5,30
73,12.416860029783509,11.055070744900808, 5,15,14.568283012662345,13,60
74,9.128876956346986,-4.781550126272596, 4,60,39.31141108867342,13,45
75,0.8664120684329922,0.258930203971465,16,15,1.2104862636877642,17,45
76,6.6158262370972,1.458480142295344,18,60,16.76964393474218, 9,45
10,0.0,0, 1,15,0, 1,15
11,4.,4, 1,15,4, 1,15
2,3, 1, 3, 0, 1, 0.00,60.00,Thursday
7,9.2125
8,0.0
9,0.0
49,0.0
53,11.917424481480788
77,11.952995371829328
78,0.2621161453147316
79,-10.059328155567584
2,3, 1, 3, 0, 2, 0.00,60.00,Thursday
7,9.775
8,0.0
9,0.0
49,0.0
53,11.963998953929215
77,11.982010012715683
78,10.46930654572952
79,12.206727248633483
2,3, 1, 3, 0, 3, 0.00,60.00,Thursday
7,11.375
8,0.0
9,0.0
49,0.0
53,11.962290740611174
77,11.994547173411268
78,-5.34066286906077
79,-1.873641342308705
2,3, 1, 3, 0, 4, 0.00,60.00,Thursday
7,13.2625
8,0.0
9,0.0
49,0.0
53,12.107490685971996
77,12.029190347494543
78,41.16600054249435
79,31.953386137688796
2,3, 1, 3, 0, 5, 0.00,60.00,Thursday
7,13.212500000000002
8,0.0
9,0.0
49,0.0
53,12.159540476746061
77,12.12429130642345
78,17.574385670144157
79,24.020203300587262
2,3, 1, 3, 0, 6, 0.00,60.00,Thursday
7,12.425
8,0.0
9,0.0
49,0.0
53,12.105147673600063
77,12.130820431915094
78,-9.34206346900049
79,-7.102308427857116
2,3, 1, 3, 0, 7, 0.00,60.00,Thursday
7,11.5125
8,0.0
9,0.0
49,0.0
53,12.023275382997525
77,12.07966878130587
78,-28.123162816831023
79,-25.85114242080368
2,3, 1, 3, 0, 8, 0.00,60.00,Thursday
7,11.1
8,0.0
9,0.0
49,0.0
53,12.044269776342016
77,12.024887142827296
78,8.187613852799558
79,-3.3097843200441783
2,3, 1, 3, 0, 9, 0.00,60.00,Thursday
7,11.474999999999998
8,0.0
9,0.0
49,0.0
53,12.430846696781835
77,12.22079241604953
78,146.03075707664647
79,126.51749889405292
2,3, 1, 3, 0,10, 0.00,60.00,Thursday
7,12.7
8,0.0
9,0.0
49,0.0
53,13.035572290540363
77,12.783457228869398
78,250.98032518236954
79,244.136131160247
2,3, 1, 3, 0,11, 0.00,60.00,Thursday
7,12.6125
8,0.0
9,0.0
49,0.0
53,13.382943578600422
77,13.33381917043803
78,116.56864728924145
79,145.19477119322642
2,3, 1, 3, 0,12, 0.00,60.00,Thursday
7,13.95
8,0.625
9,0.625
49,0.0
53,13.69389977322227
77,13.587336958273658
78,128.39579626090728
79,108.0032304227961
2,3, 1, 3, 0,13, 0.00,60.00,Thursday
7,15.375000000000002
8,2.25
9,1.625
49,0.0
53,14.16303195290222
77,14.034627485197412
78,176.68452584201592
79,179.29404353686658
2,3, 1, 3, 0,14, 0.00,60.00,Thursday
7,15.912500000000001
8,2.375
9,1.375
49,0.0
53,14.67293008361399
77,14.553420913289008
78,192.062763654742
79,194.43599428300996
2,3, 1, 3, 0,15, 0.00,60.00,Thursday
7,16.1
8,1.375
9,1.0
49,0.0
53,14.73978210562844
77,14.848569352086086
78,6.395885644878424
79,33.30036016141783
2,3, 1, 3, 0,16, 0.00,60.00,Thursday
7,14.725
8,1.625
9,1.0
49,0.0
53,14.383130719565317
77,14.677557670936903
78,-139.4388476259153
79,-116.9457646149501
2,3, 1, 3, 0,17, 0.00,60.00,Thursday
7,13.9
8,2.0
9,1.625
49,0.0
53,13.680569145000245
77,14.05795786871055
78,-266.0620236265166
79,-270.02658365900027
2,3, 1, 3, 0,18, 0.00,60.00,Thursday
7,13.212500000000002
8,1.375
9,1.375
49,0.0
53,13.447460264856987
77,13.56180556863142
78,-87.35334070908652
79,-109.62099297639641
2,3, 1, 3, 0,19, 0.00,60.00,Thursday
7,12.425
8,1.0
9,1.0
49,0.0
53,13.326835148913343