Program Version,EnergyPlus, Version 9.6.0-f420c06a69, YMD=2022.05.12 06:24
1,5,Environment Title[],Latitude[deg],Longitude[deg],Time Zone[],Elevation[m]
2,8,Day of Simulation[],Month[],Day of Month[],DST Indicator[1=yes 0=no],Hour[],StartMinute[],EndMinute[],DayType
3,5,Cumulative Day of Simulation[],Month[],Day of Month[],DST Indicator[1=yes 0=no],DayType  ! When Daily Report Variables Requested
4,2,Cumulative Days of Simulation[],Month[]  ! When Monthly Report Variables Requested
5,1,Cumulative Days of Simulation[] ! When Run Period Report Variables Requested
6,1,Calendar Year of Simulation[] ! When Annual Report Variables Requested
7,1,Environment,Site Outdoor Air Drybulb Temperature [C] !Hourly
8,1,Environment,Site Total Sky Cover [] !Hourly
9,1,Environment,Site Opaque Sky Cover [] !Hourly
10,7,Environment,Site Daylight Saving Time Status [] !Daily [Value,Min,Hour,Minute,Max,Hour,Minute]
11,7,Environment,Site Day Type Index [] !Daily [Value,Min,Hour,Minute,Max,Hour,Minute]
49,1,ZONE ONE,Zone Total Internal Latent Gain Energy [J] !Hourly
50,9,TEST 352 MINUS,Other Equipment Total Heating Energy [J] !Monthly [Value,Min,Day,Hour,Minute,Max,Day,Hour,Minute]
51,9,TEST 352A,Other Equipment Total Heating Energy [J] !Monthly [Value,Min,Day,Hour,Minute,Max,Day,Hour,Minute]
52,9,ZONE ONE,Zone Other Equipment Total Heating Energy [J] !Monthly [Value,Min,Day,Hour,Minute,Max,Day,Hour,Minute]
53,1,ZONE ONE,Zone Mean Radiant Temperature [C] !Hourly
54,7,ZN001:WALL001,Surface Inside Face Temperature [C] !Daily [Value,Min,Hour,Minute,Max,Hour,Minute]
55,7,ZN001:WALL001,Surface Outside Face Temperature [C] !Daily [Value,Min,Hour,Minute,Max,Hour,Minute]
56,7,ZN001:WALL001,Surface Inside Face Convection Heat Transfer Coefficient [W/m2-K] !Daily [Value,Min,Hour,Minute,Max,Hour,Minute]
57,7,ZN001:WALL001,Surface Outside Face Convection Heat Transfer Coefficient [W/m2-K] !Daily [Value,Min,Hour,Minute,Max,Hour,Minute]
58,7,ZN001:WALL002,Surface Inside Face Temperature [C] !Daily [Value,Min,Hour,Minute,Max,Hour,Minute]
59,7,ZN001:WALL002,Surface Outside Face Temperature [C] !Daily [Value,Min,Hour,Minute,Max,Hour,Minute]
60,7,ZN001:WALL002,Surface Inside Face Convection Heat Transfer Coefficient [W/m2-K] !Daily [Value,Min,Hour,Minute,Max,Hour,Minute]
61,7,ZN001:WALL002,Surface Outside Face Convection Heat Transfer Coefficient [W/m2-K] !Daily [Value,Min,Hour,Minute,Max,Hour,Minute]
62,7,ZN001:WALL003,Surface Inside Face Temperature [C] !Daily [Value,Min,Hour,Minute,Max,Hour,Minute]
63,7,ZN001:WALL003,Surface Outside Face Temperature [C] !Daily [Value,Min,Hour,Minute,Max,Hour,Minute]
64,7,ZN001:WALL003,Surface Inside Face Convection Heat Transfer Coefficient [W/m2-K] !Daily [Value,Min,Hour,Minute,Max,Hour,Minute]
65,7,ZN001:WALL003,Surface Outside Face Convection Heat Transfer Coefficient [W/m2-K] !Daily [Value,Min,Hour,Minute,Max,Hour,Minute]
66,7,ZN001:WALL004,Surface Inside Face Temperature [C] !Daily [Value,Min,Hour,Minute,Max,Hour,Minute]
67,7,ZN001:WALL004,Surface Outside Face Temperature [C] !Daily [Value,Min,Hour,Minute,Max,Hour,Minute]
68,7,ZN001:WALL004,Surface Inside Face Convection Heat Transfer Coefficient [W/m2-K] !Daily [Value,Min,Hour,Minute,Max,Hour,Minute]
69,7,ZN001:WALL004,Surface Outside Face Convection Heat Transfer Coefficient [W/m2-K] !Daily [Value,Min,Hour,Minute,Max,Hour,Minute]
70,7,ZN001:FLR001,Surface Inside Face Temperature [C] !Daily [Value,Min,Hour,Minute,Max,Hour,Minute]
71,7,ZN001:FLR001,Surface Outside Face Temperature [C] !Daily [Value,Min,Hour,Minute,Max,Hour,Minute]
72,7,ZN001:FLR001,Surface Inside Face Convection Heat Transfer Coefficient [W/m2-K] !Daily [Value,Min,Hour,Minute,Max,Hour,Minute]
73,7,ZN001:ROOF001,Surface Inside Face Temperature [C] !Daily [Value,Min,Hour,Minute,Max,Hour,Minute]
74,7,ZN001:ROOF001,Surface Outside Face Temperature [C] !Daily [Value,Min,Hour,Minute,Max,Hour,Minute]
75,7,ZN001:ROOF001,Surface Inside Face Convection Heat Transfer Coefficient [W/m2-K] !Daily [Value,Min,Hour,Minute,Max,Hour,Minute]
76,7,ZN001:ROOF001,Surface Outside Face Convection Heat Transfer Coefficient [W/m2-K] !Daily [Value,Min,Hour,Minute,Max,Hour,Minute]
77,1,ZONE ONE,Zone Mean Air Temperature [C] !Hourly
78,1,ZONE ONE,Zone Air Heat Balance Surface Convection Rate [W] !Hourly
79,1,ZONE ONE,Zone Air Heat Balance Air Energy Storage Rate [W] !Hourly
End of Data Dictionary
1,DENVER CENTENNIAL  GOLDEN   N ANN CLG 1% CONDNS DB=>MWB,  37.62,-122.40,  -8.00,   2.00
2,1, 7,21, 0, 1, 0.00,60.00,SummerDesignDay
7,18.966
8,1.25
9,1.25
49,0.0
53,26.789109003689873
77,27.067544405722643
78,-219.5036488913083
79,-220.15242728290002
2,1, 7,21, 0, 2, 0.00,60.00,SummerDesignDay
7,18.244
8,3.25
9,3.25
49,0.0
53,26.182259038390875
77,26.453546010748745
78,-207.41599518687718
79,-209.56203166912553
2,1, 7,21, 0, 3, 0.00,60.00,SummerDesignDay
7,17.731
8,3.375
9,3.375
49,0.0
53,25.61119423689371
77,25.87583877303318
78,-197.03841581354536
79,-198.3769094605282
2,1, 7,21, 0, 4, 0.00,60.00,SummerDesignDay
7,17.275000000000002
8,1.125
9,1.125
49,0.0
53,25.057266315394642
77,25.319526924915344
78,-193.68931836446848
79,-194.0056531120038
2,1, 7,21, 0, 5, 0.00,60.00,SummerDesignDay
7,16.913999999999998
8,1.875
9,1.875
49,0.0
53,24.525287598090806
77,24.779746156408557
78,-184.1510503830484
79,-185.7914666605297
2,1, 7,21, 0, 6, 0.00,60.00,SummerDesignDay
7,16.990000000000002
8,3.0
9,3.0
49,0.0
53,24.595503687371078
77,24.52737144213574
78,127.2908982882184
79,51.14705653807616
2,1, 7,21, 0, 7, 0.00,60.00,SummerDesignDay
7,17.769
8,3.0
9,3.0
49,0.0
53,25.804122088026187
77,25.28645300748225
78,592.3116943315488
79,493.15253413911216
2,1, 7,21, 0, 8, 0.00,60.00,SummerDesignDay
7,19.783
8,3.0
9,3.0
49,0.0
53,26.70784524386022
77,26.465649772943046
78,538.9255126028113
79,546.93546851468
2,1, 7,21, 0, 9, 0.00,60.00,SummerDesignDay
7,22.557
8,3.0
9,3.0
49,0.0
53,27.717295481186873
77,27.7233251347353
78,390.932162557103
79,392.6653927364525
2,1, 7,21, 0,10, 0.00,60.00,SummerDesignDay
7,25.255000000000003
8,2.375
9,2.375
49,0.0
53,28.789700761896984
77,28.790595744353645
78,340.5713486886597
79,349.83568956174435
2,1, 7,21, 0,11, 0.00,60.00,SummerDesignDay
7,27.649
8,0.75
9,0.75
49,0.0
53,29.657833471001187
77,29.662237660871927
78,264.0818401176972
79,273.19573861590385
2,1, 7,21, 0,12, 0.00,60.00,SummerDesignDay
7,29.454
8,0.0
9,0.0
49,0.0
53,30.24354659082143
77,30.287544664041715
78,164.7033986777797
79,177.99008695866408
2,1, 7,21, 0,13, 0.00,60.00,SummerDesignDay
7,30.784
8,0.0
9,0.0
49,0.0
53,30.837425374655115
77,30.7807044127281
78,240.73001851644673
79,211.34377588129976
2,1, 7,21, 0,14, 0.00,60.00,SummerDesignDay
7,31.715
8,0.0
9,0.0
49,0.0
53,31.768512379647255
77,31.704410730736857
78,343.01365123893896
79,346.43168724487174
2,1, 7,21, 0,15, 0.00,60.00,SummerDesignDay
7,32.0
8,0.0
9,0.0
49,0.0
53,32.50336024851349
77,32.60074590739774
78,258.34348179538296
79,272.30150590375285
2,1, 7,21, 0,16, 0.00,60.00,SummerDesignDay
7,31.43
8,0.0
9,0.0
49,0.0
53,32.85069819138099
77,33.18013125450736
78,130.10448058128804
79,149.01175213446788
2,1, 7,21, 0,17, 0.00,60.00,SummerDesignDay
7,30.328
8,0.0
9,0.0
49,0.0
53,32.891819672100425
77,33.36914807728823
78,16.847725134065858
79,25.161562436669097
2,1, 7,21, 0,18, 0.00,60.00,SummerDesignDay
7,28.922
8,0.0
9,0.0
49,0.0
53,32.72897590258345
77,33.24374739610931
78,-137.08526732522688
79,-106.26959806857101
2,1, 7,21, 0,19, 0.00,60.00,SummerDesignDay
7,26.927
8,0.0
9,0.0
49,0.0
53,31.58329806970106
77,32.3346098883389
78,-623.3555243065698
79,-584.2089958517993
2,1, 7,21, 0,20, 0.00,60.00,SummerDesignDay
7,25.027
8,0.0
9,0.0
49,0.0
53,30.019978307595753
77,30.46504797907698
78,-485.1065171848046
79,-521.3917544558382
2,1, 7,21, 0,21, 0.00,60.00,SummerDesignDay
7,23.544999999999998
8,0.0
9,0.0
49,0.0
53,29.32690771077372
77,29.59454888623825
78,-230.52364953937683
79,-232.71210002825973
2,1, 7,21, 0,22, 0.00,60.00,SummerDesignDay
7,22.177
8,0.0
9,0.0
49,0.0
53,28.68915458024609
77,28.958972560856964
78,-220.97886105884317
79,-219.95910464297916
2,1, 7,21, 0,23, 0.00,60.00,SummerDesignDay
7,20.999000000000002
8,0.0
9,0.0
49,0.0
53,28.057161997856532
77,28.326827036314047
78,-215.85008988370942
79,-217.17937503294655
2,1, 7,21, 0,24, 0.00,60.00,SummerDesignDay
7,19.935000000000002
8,0.0
9,0.0
49,0.0
53,27.424401475441588
77,27.701266061332596
78,-220.56918700174612
79,-219.71216944108338
3,1, 7,21, 0,SummerDesignDay
54,28.53449675011251,22.64094814210371, 6,15,34.51719656149888,15,15
55,27.65731726523225,15.92556385298485, 5,60,46.45192480596574,13,60
56,1.5041990818563036,0.5964687006951503,17,15,1.8941623521708215,13,45
57,9.818045059758576,9.648571742908356,10,45,10.262232488465925,19,60
58,29.022328653997793,22.660404678411332, 6,15,33.14470467079837,15,60
59,30.094223870543356,16.016941778686935, 5,60,51.93166215618903, 9,45
60,1.5366179608220252,0.42023061778139603,16,45,2.1863371525970257, 9,30
61,11.685113714709791,11.426186360421202, 7,15,12.113033393041608,19,60
62,28.182787178512754,22.6601344530542, 6,15,33.333983326140746,18,15
63,25.819940606696296,16.016941778686935, 5,60,35.47544906936075,14,60
64,1.1836191964764937,0.29422393550745457,10,60,1.6278558735290438, 3,15
65,11.693348712897661,11.47718599910377,19,15,11.881100269667275, 1,60
66,28.96422102001314,22.659890228757146, 6,15,37.91439080269576,17,15
67,29.966869974189805,16.016941778686935, 5,60,59.5873951278766,17,15
68,1.5211379464238561,0.2942239351735081,10,60,2.176595760571111,17,15
69,11.688875528078079,11.426244829495355,19,45,12.04902345486584, 6,60
70,28.75769138322344,25.914284788542485, 7,30,31.706150779884894,19,15
71,28.757688029059945,25.914284788542485, 7,45,31.706150779884894,19,30
72,1.3074385375941697,0.32284548325776885, 8,30,1.8282512504295325, 3,30
73,28.879512859601615,24.19570616267379, 6,15,33.11047827787314,16,45
74,32.35407589364834,12.838426207901032, 5,60,61.8608664253206,13,45
75,0.8208936827685006,0.2834650433827594,16,30,1.321756657044036,19,45
76,13.388742484730237,13.087088570481837,17,45,14.026154554668583,19,45
10,0.0,0, 1,15,0, 1,15
11,9.,9, 1,15,9, 1,15
4,1, 7
50,-30412800.0,-316800.0,21, 1,15,-316800.0,21, 1,15
51,30412800.0,316800.0,21, 1,15,316800.0,21, 1,15
52,0.0,0.0,21, 1,15,0.0,21, 1,15
1,DENVER CENTENNIAL  GOLDEN   N ANN HTG 99% CONDNS DB,  37.62,-122.40,  -8.00,   2.00
2,1,12,21, 0, 1, 0.00,60.00,WinterDesignDay
7,-15.5
8,1.25
9,1.25
49,0.0
53,-17.717749761855984
77,-17.720938809640053
78,-0.017300083763463814
79,-0.017377704052258407
2,1,12,21, 0, 2, 0.00,60.00,WinterDesignDay
7,-15.5
8,3.25
9,3.25
49,0.0
53,-17.71779415850496
77,-17.72098029406385
78,-0.016691879083264194
79,-0.016766775695218332
2,1,12,21, 0, 3, 0.00,60.00,WinterDesignDay
7,-15.5
8,3.375
9,3.375
49,0.0
53,-17.71783699237235
77,-17.721020319999322
78,-0.016105017583817105
79,-0.016177285723788248
2,1,12,21, 0, 4, 0.00,60.00,WinterDesignDay
7,-15.5
8,1.125
9,1.125
49,0.0
53,-17.717878318441056
77,-17.721058938631916
78,-0.015538753175824205
79,-0.01560848474283735
2,1,12,21, 0, 5, 0.00,60.00,WinterDesignDay
7,-15.5
8,1.875
9,1.875
49,0.0
53,-17.71791818976154
77,-17.72109619935752
78,-0.014992365629218796
79,-0.015059649329702662
2,1,12,21, 0, 6, 0.00,60.00,WinterDesignDay
7,-15.5
8,3.0
9,3.0
49,0.0
53,-17.717956657519604
77,-17.721132149844465
78,-0.014465159697013341
79,-0.01453008116827896
2,1,12,21, 0, 7, 0.00,60.00,WinterDesignDay
7,-15.5
8,3.0
9,3.0
49,0.0
53,-17.717993771101767
77,-17.7211668360935
78,-0.013956464261465129
79,-0.014019106158390936
2,1,12,21, 0, 8, 0.00,60.00,WinterDesignDay
7,-15.5
8,3.0
9,3.0
49,0.0
53,-17.718029578158415
77,-17.721200302495674
78,-0.013465631514843146
79,-0.013526073631454418
2,1,12,21, 0, 9, 0.00,60.00,WinterDesignDay
7,-15.5
8,3.0
9,3.0
49,0.0
53,-17.718064124664707
77,-17.721232591888306
78,-0.012992036158299136
79,-0.013050355511225912
2,1,12,21, 0,10, 0.00,60.00,WinterDesignDay
7,-15.5
8,2.375
9,2.375
49,0.0
53,-17.71809745497935
77,-17.7212637456089
78,-0.012535074645068534
79,-0.012591345557897222
2,1,12,21, 0,11, 0.00,60.00,WinterDesignDay
7,-15.5
8,0.75
9,0.75
49,0.0
53,-17.71812961190134
77,-17.72129380354743
78,-0.01209416441145894
79,-0.012148458652290311
2,1,12,21, 0,12, 0.00,60.00,WinterDesignDay
7,-15.5
8,0.0
9,0.0
49,0.0
53,-17.718160636724715
77,-17.721322804196618
78,-0.01166874318205613
79,-0.011721129985819785
2,1,12,21, 0,13, 0.00,60.00,WinterDesignDay
7,-15.5
8,0.0
9,0.0
49,0.0
53,-17.718190569291373
77,-17.721350784700633
78,-0.011258268260537552
79,-0.011308814473501252
2,1,12,21, 0,14, 0.00,60.00,WinterDesignDay
7,-15.5
8,0.0
9,0.0
49,0.0
53,-17.71821944804207
77,-17.72137778090205
78,-0.010862215858589153
79,-0.01091098598865831
2,1,12,21, 0,15, 0.00,60.00,WinterDesignDay
7,-15.5
8,0.0
9,0.0
49,0.0
53,-17.718247310065642
77,-17.72140382738723
78,-0.010480080445123718
79,-0.010527136755911815
2,1,12,21, 0,16, 0.00,60.00,WinterDesignDay
7,-15.5
8,0.0
9,0.0
49,0.0
53,-17.718274191146428
77,-17.721428957530087
78,-0.010111374124261996
79,-0.010156776692554333
2,1,12,21, 0,17, 0.00,60.00,WinterDesignDay
7,-15.5
8,0.0
9,0.0
49,0.0
53,-17.71830012581014
77,-17.721453203534416
78,-0.009755626013758789
79,-0.009799432838764882
2,1,12,21, 0,18, 0.00,60.00,WinterDesignDay
7,-15.5
8,0.0
9,0.0
49,0.0
53,-17.718325147368056
77,-17.7214765964747
78,-0.00941238166651237
79,-0.009454648722170273
2,1,12,21, 0,19, 0.00,60.00,WinterDesignDay
7,-15.5
8,0.0
9,0.0
49,0.0
53,-17.718349287959683
77,-17.721499166335562
78,-0.009081202500136776
79,-0.009121983794633196
2,1,12,21, 0,20, 0.00,60.00,WinterDesignDay
7,-15.5
8,0.0
9,0.0
49,0.0
53,-17.718372578593915
77,-17.72152094204973
78,-0.008761665260043294
79,-0.008801012916664385
2,1,12,21, 0,21, 0.00,60.00,WinterDesignDay
7,-15.5
8,0.0
9,0.0
49,0.0
53,-17.718395049188786
77,-17.721541951534917
78,-0.008453361464653586
79,-0.008491325799233541
2,1,12,21, 0,22, 0.00,60.00,WinterDesignDay
7,-15.5
8,0.0
9,0.0
49,0.0
53,-17.718416728609768
77,-17.721562221729176
78,-0.008155896921676842
79,-0.008192526461928695
2,1,12,21, 0,23, 0.00,60.00,WinterDesignDay
7,-15.5
8,0.0
9,0.0
49,0.0
53,-17.71843764470679
77,-17.72158177862522
78,-0.007868891207312156
79,-0.007904232821353245
2,1,12,21, 0,24, 0.00,60.00,WinterDesignDay
7,-15.5
8,0.0
9,0.0
49,0.0
53,-17.71845782434992
77,-17.721600647303433
78,-0.007591977208164735
79,-0.007626076094245592
3,1,12,21, 0,WinterDesignDay
54,-17.643544604394346,-17.643778069750837,24,60,-17.64323595458995, 1,15
55,-17.468548468137968,-17.468585166094968,24,60,-17.46849995203894, 1,15
56,0.5590296645469724,0.5588334977777158, 1,15,0.5591781297616595,24,60
57,7.151283625638338,7.15128243380104,24,60,7.15128520133798, 1,15
58,-17.643544604394346,-17.643778069750837,24,60,-17.64323595458995, 1,15
59,-17.468548468137968,-17.468585166094968,24,60,-17.46849995203894, 1,15
60,0.5590296645469724,0.5588334977777158, 1,15,0.5591781297616595,24,60
61,7.151283625638338,7.15128243380104,24,60,7.15128520133798, 1,15
62,-17.630253579186373,-17.63048720279832,24,60,-17.629944720461566, 1,15
63,-17.425946576916502,-17.425982571181304,24,60,-17.4258989911636, 1,15
64,0.5892179087676823,0.5890417896096015, 1,15,0.5893512091470317,24,60
65,7.416092668797728,7.4160912706782565,24,60,7.416094517210096, 1,15
66,-17.630253579186373,-17.63048720279832,24,60,-17.629944720461566, 1,15
67,-17.425946576916502,-17.425982571181304,24,60,-17.4258989911636, 1,15
68,0.5892179087676823,0.5890417896096015, 1,15,0.5893512091470317,24,60
69,7.416092668797728,7.4160912706782565,24,60,7.416094517210096, 1,15
70,-17.726562095177844,-17.726978011992486,24,60,-17.72601218627702, 1,15
71,-17.72655187648455,-17.726971537461058,24,60,-17.725997017436075, 1,15
72,0.132032071045472,0.13066598971327525, 1,15,0.13305235446921782,24,60
73,-17.80723834948951,-17.80755157503925,24,60,-17.806824249527384, 1,15
74,-20.298502203900156,-20.29850674423702,24,60,-20.298496201329232, 1,15
75,0.6707511669445124,0.6706872705824806, 1,15,0.670799329806991,24,60
76,8.619071563708951,8.619071443730546,24,60,8.619071722326831, 1,15
10,0.0,0, 1,15,0, 1,15
11,10.,10, 1,15,10, 1,15
4,1,12
50,-30412800.0,-316800.0,21, 1,15,-316800.0,21, 1,15
51,30412800.0,316800.0,21, 1,15,316800.0,21, 1,15
52,0.0,0.0,21, 1,15,0.0,21, 1,15
1,RUN PERIOD 1,  37.62,-122.40,  -8.00,   2.00
2,1, 1, 1, 0, 1, 0.00,60.00,Tuesday
7,7.0125
8,1.25
9,1.25
49,0.0
53,11.668951968766125
77,11.891972900781028
78,-148.10314216426764
79,-151.574000915512
2,1, 1, 1, 0, 2, 0.00,60.00,Tuesday
7,7.2
8,3.25
9,3.25
49,0.0
53,11.442666869530044
77,11.59322911055583
78,-64.77481989996181
79,-77.48055613545628
2,1, 1, 1, 0, 3, 0.00,60.00,Tuesday
7,6.8875
8,3.375
9,3.375
49,0.0
53,11.171419190388349
77,11.367033963296894
78,-123.29804838552195
79,-110.57600107491987
2,1, 1, 1, 0, 4, 0.00,60.00,Tuesday
7,6.324999999999999
8,1.125
9,1.125
49,0.0
53,10.707336083246311
77,10.951546625824694
78,-184.06443281363138
79,-176.94317928971157
2,1, 1, 1, 0, 5, 0.00,60.00,Tuesday
7,5.0375
8,1.875
9,1.875
49,0.0
53,10.215036624686197
77,10.45374870685146
78,-178.92648170094233
79,-181.60821809878072
2,1, 1, 1, 0, 6, 0.00,60.00,Tuesday
7,4.4
8,3.0
9,3.0
49,0.0
53,9.787060484912601
77,10.00487842506053
78,-149.92607272884513
79,-155.4727858372643
2,1, 1, 1, 0, 7, 0.00,60.00,Tuesday
7,5.4624999999999995
8,3.0
9,3.0
49,0.0
53,9.517262854151172
77,9.688280225931717
78,-85.34330283928105
79,-93.78134797069002
2,1, 1, 1, 0, 8, 0.00,60.00,Tuesday
7,5.4125
8,3.0
9,3.0
49,0.0
53,10.175885203502824
77,9.780257013061394
78,446.8396152695996
79,329.3423099010466
2,1, 1, 1, 0, 9, 0.00,60.00,Tuesday
7,6.750000000000001
8,3.0
9,3.0
49,0.0
53,12.907949068752798
77,11.850492678417769
78,1681.1499202238256
79,1608.773618057311
2,1, 1, 1, 0,10, 0.00,60.00,Tuesday
7,8.487499999999999
8,2.375
9,2.375
49,0.0
53,14.93799644454515
77,14.482751914551327
78,1433.7362179689112
79,1346.0165944019425
2,1, 1, 1, 0,11, 0.00,60.00,Tuesday
7,9.2125
8,0.75
9,0.75
49,0.0
53,15.79205897257448
77,16.091937389206137
78,555.2822359063107
79,619.5820324450058
2,1, 1, 1, 0,12, 0.00,60.00,Tuesday
7,9.775
8,0.0
9,0.0
49,0.0
53,15.974114782077454
77,16.556134658046304
78,41.84618845195945
79,30.197934077965
2,1, 1, 1, 0,13, 0.00,60.00,Tuesday
7,10.375
8,0.0
9,0.0
49,0.0
53,16.364630774963484
77,16.79893155128811
78,192.31188838717975
79,157.92732392471981
2,1, 1, 1, 0,14, 0.00,60.00,Tuesday
7,10.9125
8,0.0
9,0.0
49,0.0
53,17.63861924275334
77,17.763157677861404
78,601.1225624530978
79,577.1335489782095
2,1, 1, 1, 0,15, 0.00,60.00,Tuesday
7,12.85
8,0.0
9,0.0
49,0.0
53,18.898304588839643
77,19.337657605360036
78,412.50485795990147
79,463.7860004192092
2,1, 1, 1, 0,16, 0.00,60.00,Tuesday
7,13.9
8,0.0
9,0.0
49,0.0
53,18.189759150889888
77,19.2081113030626
78,-642.3784985674014
79,-544.9487762135228
2,1, 1, 1, 0,17, 0.00,60.00,Tuesday
7,12.15
8,0.0
9,0.0
49,0.0
53,15.641596841469063
77,17.039233924822184
78,-1402.66787710543
79,-1333.7103597663622
2,1, 1, 1, 0,18, 0.00,60.00,Tuesday
7,11.1
8,0.0
9,0.0
49,0.0
53,14.707851955371256
77,15.111533332485527
78,-464.1199239924056
79,-550.6576699695368
2,1, 1, 1, 0,19, 0.00,60.00,Tuesday
7,10.7875
8,0.0
9,0.0
49,0.0
53,14.187200582071677
77,14.414305239808805
78,-173.6697854746218
79,-176.2422795093126
2,1, 1, 1, 0,20, 0.00,60.00,Tuesday
7,10.6
8,0.0
9,0.0
49,0.0
53,13.878001771659495
77,14.047589846828087
78,-99.78743664328154
79,-108.9708668927907
2,1, 1, 1, 0,21, 0.00,60.00,Tuesday
7,9.5375
8,0.0
9,0.0
49,0.0
53,13.444910207106346
77,13.690569745887199
78,-186.29387954153265
79,-168.9237814010318
2,1, 1, 1, 0,22, 0.00,60.00,Tuesday
7,9.2125
8,0.0
9,0.0
49,0.0
53,13.06628834286655
77,13.24585927959911
78,-111.4597365702213
79,-129.61879790071433
2,1, 1, 1, 0,23, 0.00,60.00,Tuesday
7,8.4
8,0.0
9,0.0
49,0.0
53,12.614019965136233
77,12.871650571071072
78,-196.05315830507368
79,-176.4538924721037
2,1, 1, 1, 0,24, 0.00,60.00,Tuesday
7,7.1125
8,0.0
9,0.0
49,0.0
53,12.092058851650282
77,12.33333413888684
78,-181.26766759805327
79,-189.207851456692
3,1, 1, 1, 0,Tuesday
54,14.79114140448227,8.183849356549546, 8,15,25.639614637618536,15,30
55,19.911092204650824,3.5404425815740295, 6,60,53.471916657092876,15,30
56,1.7378081913088543,0.8828665793084601, 8,45,2.5001648806463943,11,30
57,4.963664805958449,1.4813503471304015, 8,15,7.806491660396429, 5,60
58,13.484381476001012,8.182029848542811, 8,15,20.282909469697675,10,30
59,13.426761705959334,3.5394465661202426, 6,60,42.42491519683734,10,30
60,1.4945303856415377,0.5095176692929526,13,15,2.363973490948105,10,15
61,4.7005546847390205,1.4736210574127606, 8,15,7.5528100539582645,17,30
62,12.655345095459083,8.182059029345933, 8,15,18.840501137769497,15,45
63,9.551044733922135,3.5676025199605537, 6,60,18.854901260115973,15,45
64,1.3387967861432983,0.7611722011803428,14,45,1.6369649211193673,18,15
65,4.40259086383895,0.9220295000464751, 9,15,7.898065252615769,17,30
66,13.21123022687005,8.183595700728212, 8,15,24.15957045191623,15,60
67,12.156673913270104,3.5404425815740286, 6,60,43.98813599170756,15,60
68,1.4343813625813249,0.6492592271096238,13,45,2.1668855888199197,15,45
69,4.558535895070613,0.9220537139611992, 9,15,7.806491660395381, 5,60
70,13.56083716043108,10.754273501270116, 8,30,16.29789201473568,16,60
71,13.560840297430309,10.754273501270116, 8,45,16.29789201473568,17,15
72,1.394653532377552,0.31921869096387534,18,15,1.7076864413588118, 1,30
73,13.532664154979964,9.180499950585876, 8,15,19.15765737846018,15,60
74,10.704619090219525,-2.9874640091654596, 8,30,34.89944077454761,14,45
75,0.964609475172001,0.118265448547328,14,30,1.552572074597728,17,30
76,5.215335392303699,1.1592460477474156, 9,15,8.989056186509451,17,30
10,0.0,0, 1,15,0, 1,15
11,3.,3, 1,15,3, 1,15
2,2, 1, 2, 0, 1, 0.00,60.00,Wednesday
7,8.075000000000001
8,0.0
9,0.0
49,0.0
53,11.912319351084257
77,12.026402706893789
78,-27.365461244344825
79,-51.96782917848611
2,2, 1, 2, 0, 2, 0.00,60.00,Wednesday
7,7.15
8,1.25
9,0.625
49,0.0
53,11.38906458433645
77,11.715509166453504
78,-271.9282224083807
79,-221.98030520821158
2,2, 1, 2, 0, 3, 0.00,60.00,Wednesday
7,5.7875
8,1.375
9,1.0
49,0.0
53,10.728600009103948
77,10.992841026515965
78,-202.68021898549313
79,-229.3810442647797
2,2, 1, 2, 0, 4, 0.00,60.00,Wednesday
7,4.5375
8,2.25
9,2.25
49,0.0
53,10.159375238344293
77,10.45025371976578
78,-221.99179579276486
79,-213.33369108565182
2,2, 1, 2, 0, 5, 0.00,60.00,Wednesday
7,4.9624999999999995
8,1.125
9,1.125
49,0.0
53,9.857728565236854
77,10.022028158143168
78,-66.06036308895465
79,-94.72131081643631
2,2, 1, 2, 0, 6, 0.00,60.00,Wednesday
7,6.6
8,0.0
9,0.0
49,0.0
53,9.904332249284089
77,9.983633539729041
78,19.829812390788746
79,14.373756305521798
2,2, 1, 2, 0, 7, 0.00,60.00,Wednesday
7,7.575
8,0.0
9,0.0
49,0.0
53,9.931939693292888
77,10.017041758844055
78,-8.284224566655862
79,-1.1212851054156272
2,2, 1, 2, 0, 8, 0.00,60.00,Wednesday
7,7.425
8,0.0
9,0.0
49,0.0
53,10.234897235894168
77,10.081573004322802
78,145.59814375515984
79,97.18201676358518
2,2, 1, 2, 0, 9, 0.00,60.00,Wednesday
7,9.325000000000001
8,0.0
9,0.0
49,0.0
53,11.739910669280151
77,11.13322424959418
78,733.7270070462196
79,699.1914989394379
2,2, 1, 2, 0,10, 0.00,60.00,Wednesday
7,11.287499999999998
8,0.0
9,0.0
49,0.0
53,13.250118144529022
77,13.087220819147213
78,633.943172847268
79,655.0094587226783
2,2, 1, 2, 0,11, 0.00,60.00,Wednesday
7,13.075
8,0.625
9,0.0
49,0.0
53,14.473360587155764
77,14.42347933637018
78,562.3572873530911
79,543.8764824905836
2,2, 1, 2, 0,12, 0.00,60.00,Wednesday
7,13.9
8,1.625
9,0.625
49,0.0
53,15.4635699342623
77,15.758059772839568
78,346.62928827117287
79,398.80312614930017
2,2, 1, 2, 0,13, 0.00,60.00,Wednesday
7,13.9
8,2.0
9,1.0
49,0.0
53,16.663642023427577
77,16.747801057646996
78,600.3987383735353
79,558.7652748145559
2,2, 1, 2, 0,14, 0.00,60.00,Wednesday
7,13.9
8,2.0
9,1.0
49,0.0
53,17.35196251932962
77,17.852166438359774
78,109.45331368239087
79,170.75991582339148
2,2, 1, 2, 0,15, 0.00,60.00,Wednesday
7,12.837499999999999
8,2.0
9,1.0
49,0.0
53,17.51232739870938
77,18.053061117462846
78,44.2487011992444
79,58.11200131596932
2,2, 1, 2, 0,16, 0.00,60.00,Wednesday
7,12.575
8,1.375
9,1.0
49,0.0
53,17.007575731176804
77,17.767540456999512
78,-407.887788262924
79,-334.25682451158104
2,2, 1, 2, 0,17, 0.00,60.00,Wednesday
7,11.7375
8,1.0
9,0.375
49,0.0
53,14.927165360131637
77,16.100858267909278
78,-1140.4636984268118
79,-1105.6678460678081
2,2, 1, 2, 0,18, 0.00,60.00,Wednesday
7,10.7875
8,2.25
9,1.25
49,0.0
53,13.975052494324391
77,14.35949318276106
78,-394.58177861929767
79,-424.6508745650306
2,2, 1, 2, 0,19, 0.00,60.00,Wednesday
7,11.287499999999998
8,1.125
9,0.75
49,0.0
53,13.521952530788244
77,13.711019875344258
78,-129.51418923507904
79,-152.42208234685398
2,2, 1, 2, 0,20, 0.00,60.00,Wednesday
7,11.7
8,0.0
9,0.0
49,0.0
53,13.366758735623769
77,13.489398130970919
78,-46.54186864557397
79,-53.31945135907947
2,2, 1, 2, 0,21, 0.00,60.00,Wednesday
7,10.6375
8,0.0
9,0.0
49,0.0
53,13.049139001462752
77,13.261723300717462
78,-149.16825606816198
79,-128.40706324161866
2,2, 1, 2, 0,22, 0.00,60.00,Wednesday
7,9.3125
8,0.0
9,0.0
49,0.0
53,12.476020703660419
77,12.745382183973945
78,-219.10211623841911
79,-214.15830556077927
2,2, 1, 2, 0,23, 0.00,60.00,Wednesday
7,9.2125
8,0.0
9,0.0
49,0.0
53,12.067509049717387
77,12.259194144962827
78,-117.8570641821154
79,-136.36080924953174
2,2, 1, 2, 0,24, 0.00,60.00,Wednesday
7,9.0875
8,0.0
9,0.0
49,0.0
53,11.73325214752365
77,11.94388976008458
78,-133.69221131129152
79,-126.33471553137235
3,2, 1, 2, 0,Wednesday
54,13.962576735585484,8.40839949900659, 4,60,24.53451506194456,13,60
55,17.725366910571605,2.6398130267986484, 4,60,55.56517495588918,13,30
56,1.6468358308461122,0.9634851562175566, 8,60,2.566773556470319,13,45
57,5.939985140730801,1.2854615529747182, 4,60,14.159546837054998, 9,60
58,12.796397543300353,8.408399642944227, 4,60,18.038763253570423,14,15
59,11.961936589077487,2.6398134713302652, 4,60,28.874647268396394,10,30
60,1.4080997990226078,0.5407255130845142,14,60,1.9584931640397385,10,45
61,5.694749567850678,1.2854623410834325, 4,60,14.139810462772704, 9,60
62,12.33914456376398,8.408399642946414, 4,60,18.038587306852484,14,15
63,9.88133414081735,2.639813471337068, 4,60,20.88819709294124,14,15
64,1.221319876224032,0.3559457724790234,11,30,1.6163096721086707,17,45
65,5.357452709961007,1.28546234109554, 4,60,11.851152595664106, 9,60
66,12.805286327248462,8.40839949900812, 4,60,21.2997950264882,15,60
67,12.028427875518387,2.6398130268033686, 4,60,35.35720851061778,15,60
68,1.3168765634729303,0.3559457724790234,11,30,1.9351589924187886,15,45
69,5.504942012028823,1.2854615529830904, 4,60,11.851152595664106, 9,60
70,13.128866871860419,10.78528124120332, 8,45,15.509662918710513,16,60
71,13.134453211904196,10.78528124120332, 8,60,15.509662918710513,17,15
72,1.3691566657020215,0.22352719799654575, 9,45,1.798055964679317, 5,30
73,12.993121438194073,9.718415888495482, 5,45,17.659910805002976,15,30
74,9.136263154556781,-4.818772248223995, 4,60,39.3549629221282,13,45
75,0.9379831923930313,0.11072323279097143,11,45,1.5809296930093175,17,45
76,6.616105604980877,1.456807579126888,18,60,16.775338085235024, 9,45
10,0.0,0, 1,15,0, 1,15
11,4.,4, 1,15,4, 1,15
2,3, 1, 3, 0, 1, 0.00,60.00,Thursday
7,9.2125
8,0.0
9,0.0
49,0.0
53,11.630023150185709
77,11.720949736400534
78,-9.643271446359698
79,-30.985560766595793
2,3, 1, 3, 0, 2, 0.00,60.00,Thursday
7,9.775
8,0.0
9,0.0
49,0.0
53,11.687940243508338
77,11.745470870836188
78,10.363658793925802
79,12.590372679435381
2,3, 1, 3, 0, 3, 0.00,60.00,Thursday
7,11.375
8,0.0
9,0.0
49,0.0
53,11.74460760485651
77,11.784820020492438
78,15.00994681631459
79,16.123244045417987
2,3, 1, 3, 0, 4, 0.00,60.00,Thursday
7,13.2625
8,0.0
9,0.0
49,0.0
53,12.14945070354647
77,11.958055354315142
78,126.5859164676265
79,107.54483999649035
2,3, 1, 3, 0, 5, 0.00,60.00,Thursday
7,13.212500000000002
8,0.0
9,0.0
49,0.0
53,12.257608033685283
77,12.21282795991258
78,32.61501631393478
79,53.42645577923654
2,3, 1, 3, 0, 6, 0.00,60.00,Thursday
7,12.425
8,0.0
9,0.0
49,0.0
53,12.102026152218691
77,12.180044199120784
78,-43.36987070523665
79,-38.15556182519466
2,3, 1, 3, 0, 7, 0.00,60.00,Thursday
7,11.5125
8,0.0
9,0.0
49,0.0
53,11.872684330687465
77,12.002681916438718
78,-88.20559684534955
79,-82.37374544742069
2,3, 1, 3, 0, 8, 0.00,60.00,Thursday
7,11.1
8,0.0
9,0.0
49,0.0
53,12.020126611209484
77,11.88872392308155
78,87.19639986410029
79,36.99657766442996
2,3, 1, 3, 0, 9, 0.00,60.00,Thursday
7,11.474999999999998
8,0.0
9,0.0
49,0.0
53,13.256249001047799
77,12.747763422913494
78,647.6544997937524
79,610.8384420874148
2,3, 1, 3, 0,10, 0.00,60.00,Thursday
7,12.7
8,0.0
9,0.0
49,0.0
53,14.978025657294967
77,14.73466396513729
78,755.9843548473739
79,760.1518454473367
2,3, 1, 3, 0,11, 0.00,60.00,Thursday
7,12.6125
8,0.0
9,0.0
49,0.0
53,15.749298211367009
77,16.145057478966578
78,179.08108573893935
79,268.2602343623038
2,3, 1, 3, 0,12, 0.00,60.00,Thursday
7,13.95
8,0.625
9,0.625
49,0.0
53,16.33984511567737
77,16.506001427013643
78,282.435216081229
79,206.9075898928059
2,3, 1, 3, 0,13, 0.00,60.00,Thursday
7,15.375000000000002
8,2.25
9,1.625
49,0.0
53,17.43100790553688
77,17.49115309623557
78,505.6786748022283
79,448.65011138669007
2,3, 1, 3, 0,14, 0.00,60.00,Thursday
7,15.912500000000001
8,2.375
9,1.375
49,0.0
53,18.73649341683936
77,18.77732678313339
78,632.9655007595675
79,640.5324813185659
2,3, 1, 3, 0,15, 0.00,60.00,Thursday
7,16.1
8,1.375
9,1.0
49,0.0
53,18.935560957277154
77,19.547922606724374
78,-80.01655508605552
79,4.148552892257683
2,3, 1, 3, 0,16, 0.00,60.00,Thursday
7,14.725
8,1.625
9,1.0
49,0.0
53,17.982927868474217
77,18.803130399538976
78,-553.628565358024
79,-515.8020372167815
2,3, 1, 3, 0,17, 0.00,60.00,Thursday
7,13.9
8,2.0
9,1.625
49,0.0
53,15.946794896630356
77,16.950602625663553
78,-980.2633533195658
79,-994.2300281060757
2,3, 1, 3, 0,18, 0.00,60.00,Thursday
7,13.212500000000002
8,1.375
9,1.375
49,0.0
53,15.348752850372367
77,15.71800282440995
78,-404.1476532520436
79,-341.3031622593259
2,3, 1, 3, 0,19, 0.00,60.00,Thursday
7,12.425
8,1.0
9,1.0
49,0.0
53,14.921529807320706
77,15.126000792505812