Program Version,EnergyPlus, Version 9.6.0-f420c06a69, YMD=2022.05.12 06:24
1,5,Environment Title[],Latitude[deg],Longitude[deg],Time Zone[],Elevation[m]
2,8,Day of Simulation[],Month[],Day of Month[],DST Indicator[1=yes 0=no],Hour[],StartMinute[],EndMinute[],DayType
3,5,Cumulative Day of Simulation[],Month[],Day of Month[],DST Indicator[1=yes 0=no],DayType  ! When Daily Report Variables Requested
4,2,Cumulative Days of Simulation[],Month[]  ! When Monthly Report Variables Requested
5,1,Cumulative Days of Simulation[] ! When Run Period Report Variables Requested
6,1,Calendar Year of Simulation[] ! When Annual Report Variables Requested
7,1,Environment,Site Outdoor Air Drybulb Temperature [C] !Hourly
8,1,Environment,Site Total Sky Cover [] !Hourly
9,1,Environment,Site Opaque Sky Cover [] !Hourly
10,7,Environment,Site Daylight Saving Time Status [] !Daily [Value,Min,Hour,Minute,Max,Hour,Minute]
11,7,Environment,Site Day Type Index [] !Daily [Value,Min,Hour,Minute,Max,Hour,Minute]
49,1,ZONE ONE,Zone Total Internal Latent Gain Energy [J] !Hourly
50,9,TEST 352 MINUS,Other Equipment Total Heating Energy [J] !Monthly [Value,Min,Day,Hour,Minute,Max,Day,Hour,Minute]
51,9,TEST 352A,Other Equipment Total Heating Energy [J] !Monthly [Value,Min,Day,Hour,Minute,Max,Day,Hour,Minute]
52,9,ZONE ONE,Zone Other Equipment Total Heating Energy [J] !Monthly [Value,Min,Day,Hour,Minute,Max,Day,Hour,Minute]
53,1,ZONE ONE,Zone Mean Radiant Temperature [C] !Hourly
54,7,ZN001:WALL001,Surface Inside Face Temperature [C] !Daily [Value,Min,Hour,Minute,Max,Hour,Minute]
55,7,ZN001:WALL001,Surface Outside Face Temperature [C] !Daily [Value,Min,Hour,Minute,Max,Hour,Minute]
56,7,ZN001:WALL001,Surface Inside Face Convection Heat Transfer Coefficient [W/m2-K] !Daily [Value,Min,Hour,Minute,Max,Hour,Minute]
57,7,ZN001:WALL001,Surface Outside Face Convection Heat Transfer Coefficient [W/m2-K] !Daily [Value,Min,Hour,Minute,Max,Hour,Minute]
58,7,ZN001:WALL002,Surface Inside Face Temperature [C] !Daily [Value,Min,Hour,Minute,Max,Hour,Minute]
59,7,ZN001:WALL002,Surface Outside Face Temperature [C] !Daily [Value,Min,Hour,Minute,Max,Hour,Minute]
60,7,ZN001:WALL002,Surface Inside Face Convection Heat Transfer Coefficient [W/m2-K] !Daily [Value,Min,Hour,Minute,Max,Hour,Minute]
61,7,ZN001:WALL002,Surface Outside Face Convection Heat Transfer Coefficient [W/m2-K] !Daily [Value,Min,Hour,Minute,Max,Hour,Minute]
62,7,ZN001:WALL003,Surface Inside Face Temperature [C] !Daily [Value,Min,Hour,Minute,Max,Hour,Minute]
63,7,ZN001:WALL003,Surface Outside Face Temperature [C] !Daily [Value,Min,Hour,Minute,Max,Hour,Minute]
64,7,ZN001:WALL003,Surface Inside Face Convection Heat Transfer Coefficient [W/m2-K] !Daily [Value,Min,Hour,Minute,Max,Hour,Minute]
65,7,ZN001:WALL003,Surface Outside Face Convection Heat Transfer Coefficient [W/m2-K] !Daily [Value,Min,Hour,Minute,Max,Hour,Minute]
66,7,ZN001:WALL004,Surface Inside Face Temperature [C] !Daily [Value,Min,Hour,Minute,Max,Hour,Minute]
67,7,ZN001:WALL004,Surface Outside Face Temperature [C] !Daily [Value,Min,Hour,Minute,Max,Hour,Minute]
68,7,ZN001:WALL004,Surface Inside Face Convection Heat Transfer Coefficient [W/m2-K] !Daily [Value,Min,Hour,Minute,Max,Hour,Minute]
69,7,ZN001:WALL004,Surface Outside Face Convection Heat Transfer Coefficient [W/m2-K] !Daily [Value,Min,Hour,Minute,Max,Hour,Minute]
70,7,ZN001:FLR001,Surface Inside Face Temperature [C] !Daily [Value,Min,Hour,Minute,Max,Hour,Minute]
71,7,ZN001:FLR001,Surface Outside Face Temperature [C] !Daily [Value,Min,Hour,Minute,Max,Hour,Minute]
72,7,ZN001:FLR001,Surface Inside Face Convection Heat Transfer Coefficient [W/m2-K] !Daily [Value,Min,Hour,Minute,Max,Hour,Minute]
73,7,ZN001:ROOF001,Surface Inside Face Temperature [C] !Daily [Value,Min,Hour,Minute,Max,Hour,Minute]
74,7,ZN001:ROOF001,Surface Outside Face Temperature [C] !Daily [Value,Min,Hour,Minute,Max,Hour,Minute]
75,7,ZN001:ROOF001,Surface Inside Face Convection Heat Transfer Coefficient [W/m2-K] !Daily [Value,Min,Hour,Minute,Max,Hour,Minute]
76,7,ZN001:ROOF001,Surface Outside Face Convection Heat Transfer Coefficient [W/m2-K] !Daily [Value,Min,Hour,Minute,Max,Hour,Minute]
77,1,ZONE ONE,Zone Mean Air Temperature [C] !Hourly
78,1,ZONE ONE,Zone Air Heat Balance Surface Convection Rate [W] !Hourly
79,1,ZONE ONE,Zone Air Heat Balance Air Energy Storage Rate [W] !Hourly
End of Data Dictionary
1,DENVER CENTENNIAL  GOLDEN   N ANN CLG 1% CONDNS DB=>MWB,  37.62,-122.40,  -8.00,   2.00
2,1, 7,21, 0, 1, 0.00,60.00,SummerDesignDay
7,18.966
8,1.25
9,1.25
49,0.0
53,28.80707590745486
77,28.95777827271046
78,-94.11804884043035
79,-94.02222911252738
2,1, 7,21, 0, 2, 0.00,60.00,SummerDesignDay
7,18.244
8,3.25
9,3.25
49,0.0
53,28.53799644255716
77,28.68837391544196
78,-92.06439048364541
79,-92.53843961547517
2,1, 7,21, 0, 3, 0.00,60.00,SummerDesignDay
7,17.731
8,3.375
9,3.375
49,0.0
53,28.276284190576717
77,28.42610758472254
78,-90.10308001804864
79,-90.33925908425083
2,1, 7,21, 0, 4, 0.00,60.00,SummerDesignDay
7,17.275000000000002
8,1.125
9,1.125
49,0.0
53,28.01555514161712
77,28.16662743562962
78,-90.49131592028981
79,-90.37696520243226
2,1, 7,21, 0, 5, 0.00,60.00,SummerDesignDay
7,16.913999999999998
8,1.875
9,1.875
49,0.0
53,27.757693004039442
77,27.907830383755794
78,-89.01068305042801
79,-89.35355867370141
2,1, 7,21, 0, 6, 0.00,60.00,SummerDesignDay
7,16.990000000000002
8,3.0
9,3.0
49,0.0
53,27.692714297726898
77,27.73038494438769
78,3.457828209386925
79,-20.26339619841383
2,1, 7,21, 0, 7, 0.00,60.00,SummerDesignDay
7,17.769
8,3.0
9,3.0
49,0.0
53,28.083369314402752
77,27.959727981104503
78,118.70566496922031
79,116.96820771453882
2,1, 7,21, 0, 8, 0.00,60.00,SummerDesignDay
7,19.783
8,3.0
9,3.0
49,0.0
53,28.4660921660692
77,28.311331997864087
78,129.96524899858355
79,126.23176790420905
2,1, 7,21, 0, 9, 0.00,60.00,SummerDesignDay
7,22.557
8,3.0
9,3.0
49,0.0
53,28.90060377601475
77,28.728453414394725
78,159.7437520950274
79,156.34011523893304
2,1, 7,21, 0,10, 0.00,60.00,SummerDesignDay
7,25.255000000000003
8,2.375
9,2.375
49,0.0
53,29.38397548104369
77,29.20385755313538
78,163.37945434970604
79,164.77328396554384
2,1, 7,21, 0,11, 0.00,60.00,SummerDesignDay
7,27.649
8,0.75
9,0.75
49,0.0
53,29.811927785666448
77,29.65183388926154
78,144.73844141423115
79,147.61569384094128
2,1, 7,21, 0,12, 0.00,60.00,SummerDesignDay
7,29.454
8,0.0
9,0.0
49,0.0
53,30.14784136822311
77,30.023458509016486
78,110.12911850958486
79,115.01292406233014
2,1, 7,21, 0,13, 0.00,60.00,SummerDesignDay
7,30.784
8,0.0
9,0.0
49,0.0
53,30.46505433364903
77,30.327386004819353
78,116.55946458303907
79,110.52494146258694
2,1, 7,21, 0,14, 0.00,60.00,SummerDesignDay
7,31.715
8,0.0
9,0.0
49,0.0
53,30.853906869301056
77,30.713946740993322
78,137.6369348205364
79,139.0349097677698
2,1, 7,21, 0,15, 0.00,60.00,SummerDesignDay
7,32.0
8,0.0
9,0.0
49,0.0
53,31.150182764701892
77,31.072075674252268
78,103.86160712986945
79,109.50659541651301
2,1, 7,21, 0,16, 0.00,60.00,SummerDesignDay
7,31.43
8,0.0
9,0.0
49,0.0
53,31.28862803859865
77,31.299834800306932
78,50.15641228721398
79,57.6626746600581
2,1, 7,21, 0,17, 0.00,60.00,SummerDesignDay
7,30.328
8,0.0
9,0.0
49,0.0
53,31.27662875973205
77,31.376084977620508
78,8.388578062016181
79,11.77614646587939
2,1, 7,21, 0,18, 0.00,60.00,SummerDesignDay
7,28.922
8,0.0
9,0.0
49,0.0
53,31.15011914508866
77,31.33745707224611
78,-47.18254688537992
79,-36.11993398225096
2,1, 7,21, 0,19, 0.00,60.00,SummerDesignDay
7,26.927
8,0.0
9,0.0
49,0.0
53,30.69648867145842
77,31.009613133498426
78,-192.20184171435292
79,-170.23488279516258
2,1, 7,21, 0,20, 0.00,60.00,SummerDesignDay
7,25.027
8,0.0
9,0.0
49,0.0
53,30.153563219979446
77,30.37289428407419
78,-186.18976757118537
79,-205.882333940286
2,1, 7,21, 0,21, 0.00,60.00,SummerDesignDay
7,23.544999999999998
8,0.0
9,0.0
49,0.0
53,29.86618049874029
77,30.004770228311788
78,-94.10172344869264
79,-97.02449367406618
2,1, 7,21, 0,22, 0.00,60.00,SummerDesignDay
7,22.177
8,0.0
9,0.0
49,0.0
53,29.608449461262065
77,29.7469673288235
78,-88.91573832167508
79,-88.48920204634148
2,1, 7,21, 0,23, 0.00,60.00,SummerDesignDay
7,20.999000000000002
8,0.0
9,0.0
49,0.0
53,29.348182551557123
77,29.489330032228008
78,-88.91146390133972
79,-89.07763234828117
2,1, 7,21, 0,24, 0.00,60.00,SummerDesignDay
7,19.935000000000002
8,0.0
9,0.0
49,0.0
53,29.081939413565152
77,29.22876035704816
78,-92.10325969284744
79,-91.5486244178259
3,1, 7,21, 0,SummerDesignDay
54,29.4357391052196,27.041740747002198, 6,15,31.737833159487923,15,45
55,27.56619378324585,15.316837866493158, 5,60,47.5743986323248,13,45
56,1.043430625086663,0.33483230291900284,17,45,1.2885452514726694,13,60
57,9.783144753724514,9.648614291600595,16,30,10.1243974765605, 7,15
58,29.571146330655182,27.050317782087667, 6,15,31.417648019421733,16,30
59,30.177706382731,15.483351227719513, 5,60,53.520742602068815, 9,45
60,1.0606994772898342,0.22687489999797386,17,30,1.4487757431746013, 9,45
61,11.643232680637185,11.426203881536917,12,15,11.982923229095388,19,60
62,29.34070388289877,27.05024812343454, 6,15,31.433260701686166,17,60
63,25.62354013517142,15.483351227719513, 5,60,35.69555239023124,14,60
64,0.8612404381736923,0.22687489999797386,17,30,1.1695049781500695, 6,15
65,11.65267843154578,11.475019933483338,19,15,12.10064740021926, 6,45
66,29.557474202025485,27.050185167398162, 6,15,32.74584991165989,16,60
67,30.034005598264134,15.483351227719513, 5,60,61.246111907461625,17,15
68,1.0598382535371682,0.2482944095459838,19,60,1.4640054615122853,17,15
69,11.64950317002105,11.426239081994652,19,45,12.045114905913724, 7,15
70,29.529645930202822,28.31741934205974, 7,60,30.732801716756125,19,15
71,29.529628263018328,28.31741934205974, 8,15,30.732801716756125,19,30
72,0.9519088472848211,0.11962941911058612, 8,60,1.3722134066778335, 6,15
73,29.60822869396094,27.398466060222454, 6,15,31.66989557902226,16,15
74,32.361202285920584,12.869733227861461, 5,60,61.85879768020166,13,45
75,0.8131664599752458,0.25946170617865805, 7,60,1.1684955830776684,20,15
76,13.38904914311581,13.087086986095525,17,45,14.02018617052426,19,45
10,0.0,0, 1,15,0, 1,15
11,9.,9, 1,15,9, 1,15
4,1, 7
50,-30412800.0,-316800.0,21, 1,15,-316800.0,21, 1,15
51,30412800.0,316800.0,21, 1,15,316800.0,21, 1,15
52,0.0,0.0,21, 1,15,0.0,21, 1,15
1,DENVER CENTENNIAL  GOLDEN   N ANN HTG 99% CONDNS DB,  37.62,-122.40,  -8.00,   2.00
2,1,12,21, 0, 1, 0.00,60.00,WinterDesignDay
7,-15.5
8,1.25
9,1.25
49,0.0
53,-18.253674220756608
77,-18.25632304722349
78,-0.0365408054045373
79,-0.036609512231533095
2,1,12,21, 0, 2, 0.00,60.00,WinterDesignDay
7,-15.5
8,3.25
9,3.25
49,0.0
53,-18.253764468669335
77,-18.256411395494567
78,-0.03599596867385024
79,-0.03606365248147608
2,1,12,21, 0, 3, 0.00,60.00,WinterDesignDay
7,-15.5
8,3.375
9,3.375
49,0.0
53,-18.253853369694628
77,-18.256498426416538
78,-0.03545924405631995
79,-0.0355259200275612
2,1,12,21, 0, 4, 0.00,60.00,WinterDesignDay
7,-15.5
8,1.125
9,1.125
49,0.0
53,-18.253940943927013
77,-18.2565841596049
78,-0.034930511172472034
79,-0.03499619426022551
2,1,12,21, 0, 5, 0.00,60.00,WinterDesignDay
7,-15.5
8,1.875
9,1.875
49,0.0
53,-18.254027211161407
77,-18.256668614383987
78,-0.034409651411285935
79,-0.03447435636155377
2,1,12,21, 0, 6, 0.00,60.00,WinterDesignDay
7,-15.5
8,3.0
9,3.0
49,0.0
53,-18.25411219089766
77,-18.25675180979133
78,-0.03389654790793406
79,-0.03396028923981832
2,1,12,21, 0, 7, 0.00,60.00,WinterDesignDay
7,-15.5
8,3.0
9,3.0
49,0.0
53,-18.254195902344904
77,-18.2568337645818
78,-0.03339108552699921
79,-0.033453877543169565
2,1,12,21, 0, 8, 0.00,60.00,WinterDesignDay
7,-15.5
8,3.0
9,3.0
49,0.0
53,-18.25427836442587
77,-18.256914497231833
78,-0.032893150821166284
79,-0.032955007620614124
2,1,12,21, 0, 9, 0.00,60.00,WinterDesignDay
7,-15.5
8,3.0
9,3.0
49,0.0
53,-18.254359595781153
77,-18.256994025943513
78,-0.032402632010182675
79,-0.032463567482829206
2,1,12,21, 0,10, 0.00,60.00,WinterDesignDay
7,-15.5
8,2.375
9,2.375
49,0.0
53,-18.254439614773432
77,-18.2570723686486
78,-0.03191941896709283
79,-0.031979446797813824
2,1,12,21, 0,11, 0.00,60.00,WinterDesignDay
7,-15.5
8,0.75
9,0.75
49,0.0
53,-18.254518439491605
77,-18.257149543012535
78,-0.0314434031949431
79,-0.03150253686607266
2,1,12,21, 0,12, 0.00,60.00,WinterDesignDay
7,-15.5
8,0.0
9,0.0
49,0.0
53,-18.254596087754848
77,-18.257225566438358
78,-0.030974477787555355
79,-0.03103273057944665
2,1,12,21, 0,13, 0.00,60.00,WinterDesignDay
7,-15.5
8,0.0
9,0.0
49,0.0
53,-18.254672577116633
77,-18.257300456070592
78,-0.030512537415596785
79,-0.03056992242159813
2,1,12,21, 0,14, 0.00,60.00,WinterDesignDay
7,-15.5
8,0.0
9,0.0
49,0.0
53,-18.254747924868692
77,-18.257374228799037
78,-0.03005747831084271
79,-0.03011400842380427
2,1,12,21, 0,15, 0.00,60.00,WinterDesignDay
7,-15.5
8,0.0
9,0.0
49,0.0
53,-18.25482214804491
77,-18.25744690126254
78,-0.02960919823818653
79,-0.029664886148612252
2,1,12,21, 0,16, 0.00,60.00,WinterDesignDay
7,-15.5
8,0.0
9,0.0
49,0.0
53,-18.25489526342517
77,-18.257518489852718
78,-0.02916759645886735
79,-0.029222454698105138
2,1,12,21, 0,17, 0.00,60.00,WinterDesignDay
7,-15.5
8,0.0
9,0.0
49,0.0
53,-18.254967287539134
77,-18.257589010717595
78,-0.028732573736653944
79,-0.028786614632242965
2,1,12,21, 0,18, 0.00,60.00,WinterDesignDay
7,-15.5
8,0.0
9,0.0
49,0.0
53,-18.25503823666997
77,-18.25765847976519
78,-0.028304032292794545
79,-0.028357267992576263
2,1,12,21, 0,19, 0.00,60.00,WinterDesignDay
7,-15.5
8,0.0
9,0.0
49,0.0
53,-18.25510812685799
77,-18.257726912667064
78,-0.02788187579196455
79,-0.027934318263859868
2,1,12,21, 0,20, 0.00,60.00,WinterDesignDay
7,-15.5
8,0.0
9,0.0
49,0.0
53,-18.255176973904327
77,-18.25779432486183
78,-0.027466009330807672
79,-0.027517670368588452
2,1,12,21, 0,21, 0.00,60.00,WinterDesignDay
7,-15.5
8,0.0
9,0.0
49,0.0
53,-18.255244793374448
77,-18.257860731558598
78,-0.027056339400820306
79,-0.027107230623245306
2,1,12,21, 0,22, 0.00,60.00,WinterDesignDay
7,-15.5
8,0.0
9,0.0
49,0.0
53,-18.2553116006017
77,-18.257926147740363
78,-0.02665277387870235
79,-0.02670290673506239
2,1,12,21, 0,23, 0.00,60.00,WinterDesignDay
7,-15.5
8,0.0
9,0.0
49,0.0
53,-18.25537741069073
77,-18.257990588167328
78,-0.02625522200375796
79,-0.026304607774553665
2,1,12,21, 0,24, 0.00,60.00,WinterDesignDay
7,-15.5
8,0.0
9,0.0
49,0.0
53,-18.255442238520924
77,-18.258054067380208
78,-0.025863594361402953
79,-0.025912244140734043
3,1,12,21, 0,WinterDesignDay
54,-18.191374004043187,-18.192169424156578,24,60,-18.190479261151616, 1,15
55,-17.462966131832925,-17.462994729561675,24,60,-17.462933963246243, 1,15
56,0.5289080887194605,0.5287689390327598, 1,15,0.5290319231566154,24,60
57,7.151463833883116,7.151462904429733,24,60,7.151464879414922, 1,15
58,-18.191374004043187,-18.192169424156578,24,60,-18.190479261151616, 1,15
59,-17.462966131832925,-17.462994729561675,24,60,-17.462933963246243, 1,15
60,0.5289080887194605,0.5287689390327598, 1,15,0.5290319231566154,24,60
61,7.151463833883116,7.151462904429733,24,60,7.151464879414922, 1,15
62,-18.187457746427622,-18.188253224137036,24,60,-18.18656293890253, 1,15
63,-17.41662449407171,-17.416652444049618,24,60,-17.41659305411613, 1,15
64,0.5391902836362426,0.5390565589611285, 1,15,0.5393092922405995,24,60
65,7.416453135231801,7.416452045520551,24,60,7.416454361032816, 1,15
66,-18.187457746427622,-18.188253224137036,24,60,-18.18656293890253, 1,15
67,-17.41662449407171,-17.416652444049618,24,60,-17.41659305411613, 1,15
68,0.5391902836362426,0.5390565589611285, 1,15,0.5393092922405995,24,60
69,7.416453135231801,7.416452045520551,24,60,7.416454361032816, 1,15
70,-18.261039651828472,-18.261995125595604,24,60,-18.25996482939084, 1,15
71,-18.261018237667685,-18.26197731091925,24,60,-18.25993936615978, 1,15
72,0.11858161018753312,0.11723143536710186, 1,15,0.11976408274938727,24,60
73,-18.32640329672812,-18.327243561590592,24,60,-18.325458106901458, 1,15
74,-20.306448405224888,-20.306460964096484,24,60,-20.30643427809375, 1,15
75,0.6239569043989797,0.6239531347981568,24,60,0.6239609199094143, 1,15
76,8.618863648087833,8.618863318529343,24,60,8.618864018799833, 1,15
10,0.0,0, 1,15,0, 1,15
11,10.,10, 1,15,10, 1,15
4,1,12
50,-30412800.0,-316800.0,21, 1,15,-316800.0,21, 1,15
51,30412800.0,316800.0,21, 1,15,316800.0,21, 1,15
52,0.0,0.0,21, 1,15,0.0,21, 1,15
1,RUN PERIOD 1,  37.62,-122.40,  -8.00,   2.00
2,1, 1, 1, 0, 1, 0.00,60.00,Tuesday
7,7.0125
8,1.25
9,1.25
49,0.0
53,12.164993819310098
77,12.298423059636558
78,-80.13606994266918
79,-77.08095158696518
2,1, 1, 1, 0, 2, 0.00,60.00,Tuesday
7,7.2
8,3.25
9,3.25
49,0.0
53,12.059686481921618
77,12.135571270372425
78,-27.24893334109194
79,-37.59621987836725
2,1, 1, 1, 0, 3, 0.00,60.00,Tuesday
7,6.8875
8,3.375
9,3.375
49,0.0
53,11.952696435211065
77,12.053515464535138
78,-48.57541073454461
79,-41.62371229900486
2,1, 1, 1, 0, 4, 0.00,60.00,Tuesday
7,6.324999999999999
8,1.125
9,1.125
49,0.0
53,11.736542110674337
77,11.873332359045564
78,-84.49033969434885
79,-80.20223796682733
2,1, 1, 1, 0, 5, 0.00,60.00,Tuesday
7,5.0375
8,1.875
9,1.875
49,0.0
53,11.52610319249846
77,11.651181374309123
78,-73.07470434707346
79,-76.53561546616531
2,1, 1, 1, 0, 6, 0.00,60.00,Tuesday
7,4.4
8,3.0
9,3.0
49,0.0
53,11.331987924427757
77,11.458636114980868
78,-71.98659468564378
79,-71.56433576014437
2,1, 1, 1, 0, 7, 0.00,60.00,Tuesday
7,5.4624999999999995
8,3.0
9,3.0
49,0.0
53,11.15147640725689
77,11.272722709775605
78,-66.03542304177708
79,-66.93325093915134
2,1, 1, 1, 0, 8, 0.00,60.00,Tuesday
7,5.4125
8,3.0
9,3.0
49,0.0
53,11.289417056073342
77,11.20146143089391
78,86.84780521806577
79,43.397062329328
2,1, 1, 1, 0, 9, 0.00,60.00,Tuesday
7,6.750000000000001
8,3.0
9,3.0
49,0.0
53,12.344960158166238
77,11.93094240653429
78,404.76075080695273
79,384.0531452429266
2,1, 1, 1, 0,10, 0.00,60.00,Tuesday
7,8.487499999999999
8,2.375
9,2.375
49,0.0
53,13.238563258016391
77,13.016950067601366
78,352.1389341816906
79,371.5606001127259
2,1, 1, 1, 0,11, 0.00,60.00,Tuesday
7,9.2125
8,0.75
9,0.75
49,0.0
53,13.699243557984177
77,13.7102264546348
78,145.98917782053502
79,175.4701757301349
2,1, 1, 1, 0,12, 0.00,60.00,Tuesday
7,9.775
8,0.0
9,0.0
49,0.0
53,13.851896563767752
77,13.92118108095407
78,47.81518156333329
79,47.60277001335507
2,1, 1, 1, 0,13, 0.00,60.00,Tuesday
7,10.375
8,0.0
9,0.0
49,0.0
53,14.073716351088908
77,14.077238525018597
78,85.37946243237027
79,75.30980120327564
2,1, 1, 1, 0,14, 0.00,60.00,Tuesday
7,10.9125
8,0.0
9,0.0
49,0.0
53,14.585338107443437
77,14.476791604096634
78,204.44302791575984
79,191.37491802311783
2,1, 1, 1, 0,15, 0.00,60.00,Tuesday
7,12.85
8,0.0
9,0.0
49,0.0
53,15.05189199163151
77,15.048901022477157
78,169.2502909690446
79,188.52325456515786
2,1, 1, 1, 0,16, 0.00,60.00,Tuesday
7,13.9
8,0.0
9,0.0
49,0.0
53,14.729437012807814
77,15.107401799333777
78,-166.79902010794575
79,-113.5572280916731
2,1, 1, 1, 0,17, 0.00,60.00,Tuesday
7,12.15
8,0.0
9,0.0
49,0.0
53,13.808401161275551
77,14.279020718996255
78,-345.85633505347704
79,-357.1937273632244
2,1, 1, 1, 0,18, 0.00,60.00,Tuesday
7,11.1
8,0.0
9,0.0
49,0.0
53,13.4171571628375
77,13.602166713032606
78,-149.32409658788015
79,-170.2199132672156
2,1, 1, 1, 0,19, 0.00,60.00,Tuesday
7,10.7875
8,0.0
9,0.0
49,0.0
53,13.207017761059381
77,13.321962102943289
78,-74.83763551975142
79,-79.07445299397253
2,1, 1, 1, 0,20, 0.00,60.00,Tuesday
7,10.6
8,0.0
9,0.0
49,0.0
53,13.091696397230756
77,13.16992757955901
78,-38.51075419308886
79,-42.8872708760917
2,1, 1, 1, 0,21, 0.00,60.00,Tuesday
7,9.5375
8,0.0
9,0.0
49,0.0
53,12.926908883503993
77,13.041960954596053
78,-67.33038222128098
79,-60.40602439891385
2,1, 1, 1, 0,22, 0.00,60.00,Tuesday
7,9.2125
8,0.0
9,0.0
49,0.0
53,12.775681846507837
77,12.867704197088587
78,-48.97312512283497
79,-55.030147183814144
2,1, 1, 1, 0,23, 0.00,60.00,Tuesday
7,8.4
8,0.0
9,0.0
49,0.0
53,12.581623059462745
77,12.71196029584188
78,-79.3736930417684
79,-71.56364098836147
2,1, 1, 1, 0,24, 0.00,60.00,Tuesday
7,7.1125
8,0.0
9,0.0
49,0.0
53,12.371816355753566
77,12.492787746344456
78,-72.00610512489871
79,-76.16260035536173
3,1, 1, 1, 0,Tuesday
54,13.270184569310414,10.611655489708179, 8,15,17.183751139148608,15,30
55,20.3579204215213,2.8721417608223683, 6,60,56.47026527509932,15,30
56,1.2005849833985296,0.753610539626684,17,15,1.7049083477067268,11,15
57,5.004705618933101,1.632451457194832, 8,45,7.7049092396934356, 5,60
58,12.89126511951652,10.611379613470246, 8,15,15.215959431453841,15,60
59,13.321815661747413,2.8717683547621577, 6,60,45.01528764950723,10,30
60,1.023823664352075,0.2484077407344817,16,15,1.6246926640411157, 9,45
61,4.726391358587315,1.7077261834095148, 8,15,7.4973328917419355,17,30
62,12.649497905023383,10.61138074987384, 8,15,15.21595943145718,15,60
63,9.027620831606294,2.92365335309484, 6,60,18.66149082951838,15,45
64,0.8749420889347866,0.24840774077500907,16,15,1.1303454954235335,17,45
65,4.415995806617557,0.8808908524882785, 9,30,7.861331732660065,17,30
66,12.810333063614719,10.611635410386617, 8,15,16.763306039806807,15,60
67,11.890278717422559,2.8721417608223785, 6,60,46.277148725696705,15,60
68,0.9530663320734178,0.11641958893364153,11,45,1.5501794272913758,15,45
69,4.582483722285798,0.8808908137808649, 9,30,7.822155704056854,16,60
70,12.869275278041577,11.724073740968867, 8,60,13.90265107328662,17,15
71,12.869296084197492,11.724073740968867, 9,15,13.90265107328662,17,30
72,1.0201374710662374,0.32153908576997214,18,15,1.2863032051275038, 8,30
73,12.8401075988404,10.774382467311229, 8,15,15.400334708840548,15,30
74,10.695296933345944,-2.940561821957362, 8,30,34.86052935081567,14,45
75,0.8723934286042491,0.15315051454190315, 9,15,1.2850338343861556,17,45
76,5.214901907401498,1.1580502896412592, 9,15,8.987270184389654,17,30
10,0.0,0, 1,15,0, 1,15
11,3.,3, 1,15,3, 1,15
2,2, 1, 2, 0, 1, 0.00,60.00,Wednesday
7,8.075000000000001
8,0.0
9,0.0
49,0.0
53,12.289515856183455
77,12.357867061885658
78,-22.695940343756302
79,-30.35673167830614
2,2, 1, 2, 0, 2, 0.00,60.00,Wednesday
7,7.15
8,1.25
9,0.625
49,0.0
53,12.027159065266318
77,12.20513282006425
78,-121.12006517031556
79,-99.85340582098634
2,2, 1, 2, 0, 3, 0.00,60.00,Wednesday
7,5.7875
8,1.375
9,1.0
49,0.0
53,11.707778465962756
77,11.86183749922812
78,-102.62576591499607
79,-114.0994889463738
2,2, 1, 2, 0, 4, 0.00,60.00,Wednesday
7,4.5375
8,2.25
9,2.25
49,0.0
53,11.438665989015899
77,11.600115100903231
78,-101.41374866643778
79,-98.44546765718526
2,2, 1, 2, 0, 5, 0.00,60.00,Wednesday
7,4.9624999999999995
8,1.125
9,1.125
49,0.0
53,11.295935061583085
77,11.392919681203912
78,-37.53651811527444
79,-49.95611183216275
2,2, 1, 2, 0, 6, 0.00,60.00,Wednesday
7,6.6
8,0.0
9,0.0
49,0.0
53,11.309201847090065
77,11.35937118365314
78,3.0371762260804225
79,0.9169296863815108
2,2, 1, 2, 0, 7, 0.00,60.00,Wednesday
7,7.575
8,0.0
9,0.0
49,0.0
53,11.30695811517866
77,11.360284599987846
78,-8.161217463027667
79,-5.193744533241954
2,2, 1, 2, 0, 8, 0.00,60.00,Wednesday
7,7.425
8,0.0
9,0.0
49,0.0
53,11.37556918970795
77,11.353780784866936
78,29.142125124369556
79,16.146560191325495
2,2, 1, 2, 0, 9, 0.00,60.00,Wednesday
7,9.325000000000001
8,0.0
9,0.0
49,0.0
53,11.911279256126521
77,11.649607156467933
78,186.57933830379687
79,168.6362449201278
2,2, 1, 2, 0,10, 0.00,60.00,Wednesday
7,11.287499999999998
8,0.0
9,0.0
49,0.0
53,12.482268002724412
77,12.256860831439838
78,233.5528694325298
79,237.66686766143118
2,2, 1, 2, 0,11, 0.00,60.00,Wednesday
7,13.075
8,0.625
9,0.0
49,0.0
53,13.02515942384386
77,12.841291843170803
78,222.25546343723767
79,214.08423511328593
2,2, 1, 2, 0,12, 0.00,60.00,Wednesday
7,13.9
8,1.625
9,0.625
49,0.0
53,13.49693592787923
77,13.42190389393446
78,165.72817680950928
79,186.56808309892864
2,2, 1, 2, 0,13, 0.00,60.00,Wednesday
7,13.9
8,2.0
9,1.0
49,0.0
53,14.07329274308488
77,13.909048082606073
78,244.41657847045718
79,219.19620425341316
2,2, 1, 2, 0,14, 0.00,60.00,Wednesday
7,13.9
8,2.0
9,1.0
49,0.0
53,14.35964195799707
77,14.40844617764176
78,72.42226265933706
79,106.61805698628189
2,2, 1, 2, 0,15, 0.00,60.00,Wednesday
7,12.837499999999999
8,2.0
9,1.0
49,0.0
53,14.408052975051238
77,14.526815522523018
78,28.89612629478098
79,31.532538648951927
2,2, 1, 2, 0,16, 0.00,60.00,Wednesday
7,12.575
8,1.375
9,1.0
49,0.0
53,14.17402133684985
77,14.463562829505515
78,-112.81453234638083
79,-82.17808695415752
2,2, 1, 2, 0,17, 0.00,60.00,Wednesday
7,11.7375
8,1.0
9,0.375
49,0.0
53,13.409190601123615
77,13.821153121353412
78,-291.3876309658341
79,-295.1528650035012
2,2, 1, 2, 0,18, 0.00,60.00,Wednesday
7,10.7875
8,2.25
9,1.25
49,0.0
53,13.02001641132812
77,13.220369194611028
78,-158.74162597149
79,-168.20450024038774
2,2, 1, 2, 0,19, 0.00,60.00,Wednesday
7,11.287499999999998
8,1.125
9,0.75
49,0.0
53,12.78652214803469
77,12.897751112611754
78,-74.82383988999273
79,-87.03621130705761
2,2, 1, 2, 0,20, 0.00,60.00,Wednesday
7,11.7
8,0.0
9,0.0
49,0.0
53,12.724792956008875
77,12.777912330153212
78,-17.697420747790478
79,-23.512793058110567
2,2, 1, 2, 0,21, 0.00,60.00,Wednesday
7,10.6375
8,0.0
9,0.0
49,0.0
53,12.611155178135688
77,12.707459040032457
78,-50.8362514259842
79,-41.860553585298
2,2, 1, 2, 0,22, 0.00,60.00,Wednesday
7,9.3125
8,0.0
9,0.0
49,0.0
53,12.35103564357176
77,12.498844288767867
78,-100.21395726980842
79,-95.15994162916519
2,2, 1, 2, 0,23, 0.00,60.00,Wednesday
7,9.2125
8,0.0
9,0.0
49,0.0
53,12.150610166130416
77,12.259694662988696
78,-62.848036476111346
79,-71.22034212327829
2,2, 1, 2, 0,24, 0.00,60.00,Wednesday
7,9.0875
8,0.0
9,0.0
49,0.0
53,11.987953721399307
77,12.101727347780102
78,-62.5933922493368
79,-59.96732934126385
3,2, 1, 2, 0,Wednesday
54,12.856991953016319,10.816909489804072, 4,60,16.547655833302763,13,60
55,17.87843766231649,1.4264977101523877, 4,60,58.765137295600475,13,45
56,1.1404345451316242,0.38499583508902946, 8,60,1.7717181472685952,13,45
57,6.020277735132816,1.6238026480601295, 2,60,14.152153979562685, 9,60
58,12.517994156751165,10.816909490209733, 4,60,14.662904227364589,14,15
59,11.645052294730393,1.4264977136757726, 4,60,29.841494132010524,10,30
60,0.9972024202220092,0.3540134059661656,15,45,1.3725851827795188,10,45
61,5.767636281049669,1.6821120309610904, 2,60,14.132935714682251, 9,60
62,12.390089708630496,10.815014708207197, 5,15,14.66289953235699,14,15
63,9.424031810846424,1.4264977136757728, 4,60,21.246484039138494,13,60
64,0.9165710545411122,0.3540134060204777,15,45,1.1518491153167918, 5,15
65,5.427517428992044,1.6821120407014047, 2,60,11.741121193405425, 9,60
66,12.525540308626269,10.815014708252887, 5,15,15.655180766489927,15,30
67,11.773452787954872,1.4264977101523881, 4,60,36.857052952156494,15,60
68,0.9854000782834834,0.4486985605004432, 9,45,1.366085879052487,15,45
69,5.576906886434712,1.6238026539063737, 2,60,11.741121193405425, 9,60
70,12.631436530613316,11.7014050435383, 8,60,13.512236106993718,16,60
71,12.635534146862208,11.7014050435383, 9,15,13.512236106993718,17,15
72,1.004687849514364,0.29446091886172154,18,15,1.3722572629120464, 5,30
73,12.511073569849772,11.036412658234559, 5,30,14.801344334504313,13,60
74,9.130439596356352,-4.781967232561483, 4,60,39.31448951686115,13,45
75,0.8688402292633962,0.2645746619381275,16,15,1.2417864449291867,17,45
76,6.615819974101883,1.458271984216205,18,60,16.76999898166917, 9,45
10,0.0,0, 1,15,0, 1,15
11,4.,4, 1,15,4, 1,15
2,3, 1, 3, 0, 1, 0.00,60.00,Thursday
7,9.2125
8,0.0
9,0.0
49,0.0
53,11.959221548705239
77,11.999998989431203
78,-0.623386303904379
79,-11.683135711787614
2,3, 1, 3, 0, 2, 0.00,60.00,Thursday
7,9.775
8,0.0
9,0.0
49,0.0
53,12.006292497850744
77,12.02825777719797
78,10.242767508646299
79,12.043300706405395
2,3, 1, 3, 0, 3, 0.00,60.00,Thursday
7,11.375
8,0.0
9,0.0
49,0.0
53,12.006722699568588
77,12.041046147435372
78,-4.905954686757157
79,-1.5089170612648741
2,3, 1, 3, 0, 4, 0.00,60.00,Thursday
7,13.2625
8,0.0
9,0.0
49,0.0
53,12.166612968001514
77,12.082111519248896
78,45.64944130591583
79,35.820403119612195
2,3, 1, 3, 0, 5, 0.00,60.00,Thursday
7,13.212500000000002
8,0.0
9,0.0
49,0.0
53,12.221363387681347
77,12.185933830351356
78,18.677050169117926
79,25.82826448281597
2,3, 1, 3, 0, 6, 0.00,60.00,Thursday
7,12.425
8,0.0
9,0.0
49,0.0
53,12.160254202571656
77,12.190414071549961
78,-11.612107746562998
79,-9.048599256804895
2,3, 1, 3, 0, 7, 0.00,60.00,Thursday
7,11.5125
8,0.0
9,0.0
49,0.0
53,12.068837092997414
77,12.130915011791597
78,-31.96335594768984
79,-29.51685035104419
2,3, 1, 3, 0, 8, 0.00,60.00,Thursday
7,11.1
8,0.0
9,0.0
49,0.0
53,12.095958430318937
77,12.070854401009088
78,11.372110895687797
79,-2.0833704382403777
2,3, 1, 3, 0, 9, 0.00,60.00,Thursday
7,11.474999999999998
8,0.0
9,0.0
49,0.0
53,12.533067037383377
77,12.303691603221337
78,170.32816208314244
79,148.1966375439726
2,3, 1, 3, 0,10, 0.00,60.00,Thursday
7,12.7
8,0.0
9,0.0
49,0.0
53,13.203845591064114
77,12.945581670323305
78,281.38556903783694
79,274.9245505903315
2,3, 1, 3, 0,11, 0.00,60.00,Thursday
7,12.6125
8,0.0
9,0.0
49,0.0
53,13.581680066749689
77,13.55246906174547
78,124.26298004487744
79,156.70037984643517
2,3, 1, 3, 0,12, 0.00,60.00,Thursday
7,13.95
8,0.625
9,0.625
49,0.0
53,13.914001530397174
77,13.818886220781966
78,137.70728158993276
79,114.68867082543244
2,3, 1, 3, 0,13, 0.00,60.00,Thursday
7,15.375000000000002
8,2.25
9,1.625
49,0.0
53,14.423480618433292
77,14.305212001320228
78,193.0743430072394
79,195.76424633398236
2,3, 1, 3, 0,14, 0.00,60.00,Thursday
7,15.912500000000001
8,2.375
9,1.375
49,0.0
53,14.988246466788189
77,14.878296817336297
78,213.36730722578986
79,215.69640774917892
2,3, 1, 3, 0,15, 0.00,60.00,Thursday
7,16.1
8,1.375
9,1.0
49,0.0
53,15.067236579126952
77,15.20498694514476
78,5.911448552549075
79,35.89139356864774
2,3, 1, 3, 0,16, 0.00,60.00,Thursday
7,14.725
8,1.625
9,1.0
49,0.0
53,14.680458754629411
77,15.008241259219451
78,-159.49709906508684
79,-133.766198524667
2,3, 1, 3, 0,17, 0.00,60.00,Thursday
7,13.9
8,2.0
9,1.625
49,0.0
53,13.90031800608153
77,14.308236160536511
78,-296.463683188544
79,-302.09227718552637
2,3, 1, 3, 0,18, 0.00,60.00,Thursday
7,13.212500000000002
8,1.375
9,1.375
49,0.0
53,13.637707869145213
77,13.75991256372993
78,-95.63058957324351
79,-119.95915362819348
2,3, 1, 3, 0,19, 0.00,60.00,Thursday
7,12.425
8,1.0
9,1.0
49,0.0
53,13.502375510144475
77,13.595509630123141