Program Version,EnergyPlus, Version 9.6.0-f420c06a69, YMD=2022.05.12 06:24
1,5,Environment Title[],Latitude[deg],Longitude[deg],Time Zone[],Elevation[m]
2,8,Day of Simulation[],Month[],Day of Month[],DST Indicator[1=yes 0=no],Hour[],StartMinute[],EndMinute[],DayType
3,5,Cumulative Day of Simulation[],Month[],Day of Month[],DST Indicator[1=yes 0=no],DayType  ! When Daily Report Variables Requested
4,2,Cumulative Days of Simulation[],Month[]  ! When Monthly Report Variables Requested
5,1,Cumulative Days of Simulation[] ! When Run Period Report Variables Requested
6,1,Calendar Year of Simulation[] ! When Annual Report Variables Requested
7,1,Environment,Site Outdoor Air Drybulb Temperature [C] !Hourly
8,1,Environment,Site Total Sky Cover [] !Hourly
9,1,Environment,Site Opaque Sky Cover [] !Hourly
10,7,Environment,Site Daylight Saving Time Status [] !Daily [Value,Min,Hour,Minute,Max,Hour,Minute]
11,7,Environment,Site Day Type Index [] !Daily [Value,Min,Hour,Minute,Max,Hour,Minute]
49,1,ZONE ONE,Zone Total Internal Latent Gain Energy [J] !Hourly
50,9,TEST 352 MINUS,Other Equipment Total Heating Energy [J] !Monthly [Value,Min,Day,Hour,Minute,Max,Day,Hour,Minute]
51,9,TEST 352A,Other Equipment Total Heating Energy [J] !Monthly [Value,Min,Day,Hour,Minute,Max,Day,Hour,Minute]
52,9,ZONE ONE,Zone Other Equipment Total Heating Energy [J] !Monthly [Value,Min,Day,Hour,Minute,Max,Day,Hour,Minute]
53,1,ZONE ONE,Zone Mean Radiant Temperature [C] !Hourly
54,7,ZN001:WALL001,Surface Inside Face Temperature [C] !Daily [Value,Min,Hour,Minute,Max,Hour,Minute]
55,7,ZN001:WALL001,Surface Outside Face Temperature [C] !Daily [Value,Min,Hour,Minute,Max,Hour,Minute]
56,7,ZN001:WALL001,Surface Inside Face Convection Heat Transfer Coefficient [W/m2-K] !Daily [Value,Min,Hour,Minute,Max,Hour,Minute]
57,7,ZN001:WALL001,Surface Outside Face Convection Heat Transfer Coefficient [W/m2-K] !Daily [Value,Min,Hour,Minute,Max,Hour,Minute]
58,7,ZN001:WALL002,Surface Inside Face Temperature [C] !Daily [Value,Min,Hour,Minute,Max,Hour,Minute]
59,7,ZN001:WALL002,Surface Outside Face Temperature [C] !Daily [Value,Min,Hour,Minute,Max,Hour,Minute]
60,7,ZN001:WALL002,Surface Inside Face Convection Heat Transfer Coefficient [W/m2-K] !Daily [Value,Min,Hour,Minute,Max,Hour,Minute]
61,7,ZN001:WALL002,Surface Outside Face Convection Heat Transfer Coefficient [W/m2-K] !Daily [Value,Min,Hour,Minute,Max,Hour,Minute]
62,7,ZN001:WALL003,Surface Inside Face Temperature [C] !Daily [Value,Min,Hour,Minute,Max,Hour,Minute]
63,7,ZN001:WALL003,Surface Outside Face Temperature [C] !Daily [Value,Min,Hour,Minute,Max,Hour,Minute]
64,7,ZN001:WALL003,Surface Inside Face Convection Heat Transfer Coefficient [W/m2-K] !Daily [Value,Min,Hour,Minute,Max,Hour,Minute]
65,7,ZN001:WALL003,Surface Outside Face Convection Heat Transfer Coefficient [W/m2-K] !Daily [Value,Min,Hour,Minute,Max,Hour,Minute]
66,7,ZN001:WALL004,Surface Inside Face Temperature [C] !Daily [Value,Min,Hour,Minute,Max,Hour,Minute]
67,7,ZN001:WALL004,Surface Outside Face Temperature [C] !Daily [Value,Min,Hour,Minute,Max,Hour,Minute]
68,7,ZN001:WALL004,Surface Inside Face Convection Heat Transfer Coefficient [W/m2-K] !Daily [Value,Min,Hour,Minute,Max,Hour,Minute]
69,7,ZN001:WALL004,Surface Outside Face Convection Heat Transfer Coefficient [W/m2-K] !Daily [Value,Min,Hour,Minute,Max,Hour,Minute]
70,7,ZN001:FLR001,Surface Inside Face Temperature [C] !Daily [Value,Min,Hour,Minute,Max,Hour,Minute]
71,7,ZN001:FLR001,Surface Outside Face Temperature [C] !Daily [Value,Min,Hour,Minute,Max,Hour,Minute]
72,7,ZN001:FLR001,Surface Inside Face Convection Heat Transfer Coefficient [W/m2-K] !Daily [Value,Min,Hour,Minute,Max,Hour,Minute]
73,7,ZN001:ROOF001,Surface Inside Face Temperature [C] !Daily [Value,Min,Hour,Minute,Max,Hour,Minute]
74,7,ZN001:ROOF001,Surface Outside Face Temperature [C] !Daily [Value,Min,Hour,Minute,Max,Hour,Minute]
75,7,ZN001:ROOF001,Surface Inside Face Convection Heat Transfer Coefficient [W/m2-K] !Daily [Value,Min,Hour,Minute,Max,Hour,Minute]
76,7,ZN001:ROOF001,Surface Outside Face Convection Heat Transfer Coefficient [W/m2-K] !Daily [Value,Min,Hour,Minute,Max,Hour,Minute]
77,1,ZONE ONE,Zone Mean Air Temperature [C] !Hourly
78,1,ZONE ONE,Zone Air Heat Balance Surface Convection Rate [W] !Hourly
79,1,ZONE ONE,Zone Air Heat Balance Air Energy Storage Rate [W] !Hourly
End of Data Dictionary
1,DENVER CENTENNIAL  GOLDEN   N ANN CLG 1% CONDNS DB=>MWB,  37.62,-122.40,  -8.00,   2.00
2,1, 7,21, 0, 1, 0.00,60.00,SummerDesignDay
7,18.966
8,1.25
9,1.25
49,0.0
53,29.197718745506542
77,29.329186639339753
78,-79.41691690793118
79,-79.30786827564415
2,1, 7,21, 0, 2, 0.00,60.00,SummerDesignDay
7,18.244
8,3.25
9,3.25
49,0.0
53,28.969706966350035
77,29.10115574991966
78,-77.99015975113167
79,-78.34398055011442
2,1, 7,21, 0, 3, 0.00,60.00,SummerDesignDay
7,17.731
8,3.375
9,3.375
49,0.0
53,28.747121541169413
77,28.878314593920948
78,-76.57057173493567
79,-76.73788010601743
2,1, 7,21, 0, 4, 0.00,60.00,SummerDesignDay
7,17.275000000000002
8,1.125
9,1.125
49,0.0
53,28.52478451864574
77,28.657254545470312
78,-77.0391040637803
79,-76.92306454220227
2,1, 7,21, 0, 5, 0.00,60.00,SummerDesignDay
7,16.913999999999998
8,1.875
9,1.875
49,0.0
53,28.304256490328477
77,28.436200138291245
78,-76.04715280669754
79,-76.29767438668591
2,1, 7,21, 0, 6, 0.00,60.00,SummerDesignDay
7,16.990000000000002
8,3.0
9,3.0
49,0.0
53,28.234769897966665
77,28.27742710380349
78,-4.525468364402624
79,-23.11494513064824
2,1, 7,21, 0, 7, 0.00,60.00,SummerDesignDay
7,17.769
8,3.0
9,3.0
49,0.0
53,28.54108778440636
77,28.442290571065815
78,91.22870912019695
79,88.92489861525753
2,1, 7,21, 0, 8, 0.00,60.00,SummerDesignDay
7,19.783
8,3.0
9,3.0
49,0.0
53,28.870132995539574
77,28.72116233594837
78,103.9501682366742
79,101.11874108513378
2,1, 7,21, 0, 9, 0.00,60.00,SummerDesignDay
7,22.557
8,3.0
9,3.0
49,0.0
53,29.247935270087424
77,29.066042657216098
78,136.4869272055503
79,132.14228750574748
2,1, 7,21, 0,10, 0.00,60.00,SummerDesignDay
7,25.255000000000003
8,2.375
9,2.375
49,0.0
53,29.665505263029402
77,29.47935142488864
78,144.07068210116807
79,144.82736015239462
2,1, 7,21, 0,11, 0.00,60.00,SummerDesignDay
7,27.649
8,0.75
9,0.75
49,0.0
53,30.044586940078325
77,29.87841003655144
78,129.92465348044885
79,132.25139069884622
2,1, 7,21, 0,12, 0.00,60.00,SummerDesignDay
7,29.454
8,0.0
9,0.0
49,0.0
53,30.350326363085717
77,30.21686991836374
78,102.17964807706403
79,106.11034239942799
2,1, 7,21, 0,13, 0.00,60.00,SummerDesignDay
7,30.784
8,0.0
9,0.0
49,0.0
53,30.634297986100883
77,30.49647083709117
78,102.79401179666986
79,98.96679628432227
2,1, 7,21, 0,14, 0.00,60.00,SummerDesignDay
7,31.715
8,0.0
9,0.0
49,0.0
53,30.960174650432016
77,30.82406734745007
78,114.06727726816459
79,115.58655779061658
2,1, 7,21, 0,15, 0.00,60.00,SummerDesignDay
7,32.0
8,0.0
9,0.0
49,0.0
53,31.202798852723493
77,31.11871960134801
78,84.86543369606318
79,89.61938193616078
2,1, 7,21, 0,16, 0.00,60.00,SummerDesignDay
7,31.43
8,0.0
9,0.0
49,0.0
53,31.310100411006093
77,31.302487111269397
78,39.40512298975296
79,45.72675984126849
2,1, 7,21, 0,17, 0.00,60.00,SummerDesignDay
7,30.328
8,0.0
9,0.0
49,0.0
53,31.28634773439995
77,31.356672079776516
78,2.402565392177264
79,5.654197174300099
2,1, 7,21, 0,18, 0.00,60.00,SummerDesignDay
7,28.922
8,0.0
9,0.0
49,0.0
53,31.15630332012053
77,31.311528199877472
78,-42.201420453736894
79,-33.5666385377294
2,1, 7,21, 0,19, 0.00,60.00,SummerDesignDay
7,26.927
8,0.0
9,0.0
49,0.0
53,30.771745891971307
77,31.036104669958142
78,-158.27527725617716
79,-140.75811150466586
2,1, 7,21, 0,20, 0.00,60.00,SummerDesignDay
7,25.027
8,0.0
9,0.0
49,0.0
53,30.329961216159926
77,30.51807794761205
78,-151.68660972574312
79,-167.27431939545767
2,1, 7,21, 0,21, 0.00,60.00,SummerDesignDay
7,23.544999999999998
8,0.0
9,0.0
49,0.0
53,30.090970538011756
77,30.212011761648057
78,-79.30432438401088
79,-81.8077320783021
2,1, 7,21, 0,22, 0.00,60.00,SummerDesignDay
7,22.177
8,0.0
9,0.0
49,0.0
53,29.874202375996155
77,29.994792527523416
78,-74.71495420183206
79,-74.37506752736212
2,1, 7,21, 0,23, 0.00,60.00,SummerDesignDay
7,20.999000000000002
8,0.0
9,0.0
49,0.0
53,29.655038243787835
77,29.77799597997262
78,-74.84065778013579
79,-74.94861865317567
2,1, 7,21, 0,24, 0.00,60.00,SummerDesignDay
7,19.935000000000002
8,0.0
9,0.0
49,0.0
53,29.430457211177327
77,29.55838516682791
78,-77.55955606168362
79,-77.08680767012704
3,1, 7,21, 0,SummerDesignDay
54,29.726226002754725,27.742773023385798, 6,15,31.634877758118023,15,60
55,27.555037937789518,15.23966731017279, 5,60,47.68409866065604,13,45
56,0.9597210326389188,0.27394395309713926,17,45,1.1785655426947537,13,60
57,9.78026317064745,9.648584261120643,16,30,10.08422912099388, 7,15
58,29.826069168065896,27.749410269761704, 6,15,31.402530649349153,16,30
59,30.183007086765173,15.415963610231135, 5,60,53.66123800300237, 9,45
60,0.9788586755827832,0.27813626573219924,17,30,1.3248703819551044, 9,60
61,11.639712538813058,11.426190778131634,12,15,11.97069324987951,19,60
62,29.65615933102534,27.749359161581957, 6,15,31.4025306493491,16,30
63,25.6032584796978,15.415963610231135, 5,60,35.72508462876873,14,60
64,0.7992389057741831,0.1908595374861762,18,60,1.0800918317644812, 6,15
65,11.649940909051203,11.474654699446408,19,15,12.179434463223899, 6,45
66,29.817181101995402,27.749312971082137, 6,15,32.385262015655066,16,60
67,30.037670702369326,15.415963610231135, 5,60,61.40691488693645,17,15
68,0.9766700678149052,0.26927284331601553, 9,45,1.3290358049194873,16,60
69,11.64616485935919,11.426221216660775,14,45,12.00868625238571, 7,15
70,29.80444271715213,28.765202978427503, 7,60,30.824704065200475,19,15
71,29.80442212476076,28.765202978427503, 8,15,30.824704065200475,19,30
72,0.9006475564846991,0.2309141940660481, 9,15,1.2957694980116157, 6,30
73,29.874577429439583,27.94098721021675, 6,15,31.713299833080345,15,60
74,32.36375569950322,12.8750506190194, 5,60,61.86033938145773,13,45
75,0.812585773359892,0.12086331879153775, 7,60,1.127906768023861,20,15
76,13.389130273106483,13.087087021245216,17,45,14.020282186022234,19,45
10,0.0,0, 1,15,0, 1,15
11,9.,9, 1,15,9, 1,15
4,1, 7
50,-30412800.0,-316800.0,21, 1,15,-316800.0,21, 1,15
51,30412800.0,316800.0,21, 1,15,316800.0,21, 1,15
52,0.0,0.0,21, 1,15,0.0,21, 1,15
1,DENVER CENTENNIAL  GOLDEN   N ANN HTG 99% CONDNS DB,  37.62,-122.40,  -8.00,   2.00
2,1,12,21, 0, 1, 0.00,60.00,WinterDesignDay
7,-15.5
8,1.25
9,1.25
49,0.0
53,-18.445914175744694
77,-18.448347824876613
78,-0.04064946631357369
79,-0.04071268020017997
2,1,12,21, 0, 2, 0.00,60.00,WinterDesignDay
7,-15.5
8,3.25
9,3.25
49,0.0
53,-18.446014198416687
77,-18.448446160588087
78,-0.04014744413801141
79,-0.04020987839085731
2,1,12,21, 0, 3, 0.00,60.00,WinterDesignDay
7,-15.5
8,3.375
9,3.375
49,0.0
53,-18.44611298465729
77,-18.448543281802436
78,-0.03965161315652388
79,-0.03971327734658192
2,1,12,21, 0, 4, 0.00,60.00,WinterDesignDay
7,-15.5
8,1.125
9,1.125
49,0.0
53,-18.446210549746038
77,-18.448639203498715
78,-0.03916189727004449
79,-0.03922280086921196
2,1,12,21, 0, 5, 0.00,60.00,WinterDesignDay
7,-15.5
8,1.875
9,1.875
49,0.0
53,-18.446306908773774
77,-18.448733940471797
78,-0.03867822131599441
79,-0.03873837367920967
2,1,12,21, 0, 6, 0.00,60.00,WinterDesignDay
7,-15.5
8,3.0
9,3.0
49,0.0
53,-18.446402076644986
77,-18.448827507334688
78,-0.038200511045480834
79,-0.03825992140731123
2,1,12,21, 0, 7, 0.00,60.00,WinterDesignDay
7,-15.5
8,3.0
9,3.0
49,0.0
53,-18.446496068080098
77,-18.448919918520744
78,-0.03772869310606497
79,-0.03778737059931653
2,1,12,21, 0, 8, 0.00,60.00,WinterDesignDay
7,-15.5
8,3.0
9,3.0
49,0.0
53,-18.44658889761773
77,-18.449011188285787
78,-0.03726269505651425
79,-0.03732064868671656
2,1,12,21, 0, 9, 0.00,60.00,WinterDesignDay
7,-15.5
8,3.0
9,3.0
49,0.0
53,-18.446680579616945
77,-18.449101330710366
78,-0.03680244532756438
79,-0.036859683995452336
2,1,12,21, 0,10, 0.00,60.00,WinterDesignDay
7,-15.5
8,2.375
9,2.375
49,0.0
53,-18.446771128259478
77,-18.449190359701845
78,-0.036347873225952565
79,-0.03640440572869132
2,1,12,21, 0,11, 0.00,60.00,WinterDesignDay
7,-15.5
8,0.75
9,0.75
49,0.0
53,-18.4468605575519
77,-18.44927828899652
78,-0.03589890891487402
79,-0.03595474394770963
2,1,12,21, 0,12, 0.00,60.00,WinterDesignDay
7,-15.5
8,0.0
9,0.0
49,0.0
53,-18.446948881327803
77,-18.449365132161716
78,-0.035455483421870326
79,-0.0355106295539649
2,1,12,21, 0,13, 0.00,60.00,WinterDesignDay
7,-15.5
8,0.0
9,0.0
49,0.0
53,-18.44703611324991
77,-18.449450902597846
78,-0.03501752861222096
79,-0.03507199432353645
2,1,12,21, 0,14, 0.00,60.00,WinterDesignDay
7,-15.5
8,0.0
9,0.0
49,0.0
53,-18.447122266812197
77,-18.44953561354045
78,-0.03458497717499265
79,-0.034638770843382224
2,1,12,21, 0,15, 0.00,60.00,WinterDesignDay
7,-15.5
8,0.0
9,0.0
49,0.0
53,-18.44720735534196
77,-18.44961927806222
78,-0.03415776263338133
79,-0.03421089252149493
2,1,12,21, 0,16, 0.00,60.00,WinterDesignDay
7,-15.5
8,0.0
9,0.0
49,0.0
53,-18.447291392001873
77,-18.449701909074957
78,-0.03373581931263914
79,-0.03378829359342561
2,1,12,21, 0,17, 0.00,60.00,WinterDesignDay
7,-15.5
8,0.0
9,0.0
49,0.0
53,-18.44737438979204
77,-18.449783519331575
78,-0.03331908234579606
79,-0.03337090908575364
2,1,12,21, 0,18, 0.00,60.00,WinterDesignDay
7,-15.5
8,0.0
9,0.0
49,0.0
53,-18.44745636155198
77,-18.449864121428018
78,-0.032907487661274715
79,-0.03295867483213272
2,1,12,21, 0,19, 0.00,60.00,WinterDesignDay
7,-15.5
8,0.0
9,0.0
49,0.0
53,-18.447537319962617
77,-18.449943727805206
78,-0.03250097196756352
79,-0.03255152744104327
2,1,12,21, 0,20, 0.00,60.00,WinterDesignDay
7,-15.5
8,0.0
9,0.0
49,0.0
53,-18.447617277548233
77,-18.450022350750906
78,-0.03209947274691283
79,-0.03214940430536106
2,1,12,21, 0,21, 0.00,60.00,WinterDesignDay
7,-15.5
8,0.0
9,0.0
49,0.0
53,-18.447696246678387
77,-18.45010000240162
78,-0.03170292824477006
79,-0.03175224356362775
2,1,12,21, 0,22, 0.00,60.00,WinterDesignDay
7,-15.5
8,0.0
9,0.0
49,0.0
53,-18.447774239569853
77,-18.45017669474442
78,-0.031311277462088505
79,-0.03135998414396321
2,1,12,21, 0,23, 0.00,60.00,WinterDesignDay
7,-15.5
8,0.0
9,0.0
49,0.0
53,-18.447851268288474
77,-18.450252439618794
78,-0.030924460151162236
79,-0.03097256567757139
2,1,12,21, 0,24, 0.00,60.00,WinterDesignDay
7,-15.5
8,0.0
9,0.0
49,0.0
53,-18.447927344751047
77,-18.450327248718423
78,-0.030542416802858074
79,-0.03058992857477284
3,1,12,21, 0,WinterDesignDay
54,-18.389039321283747,-18.389973889925262,24,60,-18.388009183044833, 1,15
55,-17.46048392152958,-17.46050819561434,24,60,-17.460457165240964, 1,15
56,0.5137022061415819,0.5135833170981157, 1,15,0.5138102114724549,24,60
57,7.1515443089963755,7.151543518492797,24,60,7.151545180350292, 1,15
58,-18.389039321283747,-18.389973889925262,24,60,-18.388009183044833, 1,15
59,-17.46048392152958,-17.46050819561434,24,60,-17.460457165240964, 1,15
60,0.5137022061415819,0.5135833170981157, 1,15,0.5138102114724549,24,60
61,7.1515443089963755,7.151543518492797,24,60,7.151545180350292, 1,15
62,-18.386131796650325,-18.387066400300466,24,60,-18.385101619953115, 1,15
63,-17.413786821495922,-17.41381053843846,24,60,-17.413760679320188, 1,15
64,0.5218238309177261,0.5217087207930369, 1,15,0.5219284045289599,24,60
65,7.4165635020025915,7.416562575412565,24,60,7.416564523359316, 1,15
66,-18.386131796650325,-18.387066400300466,24,60,-18.385101619953115, 1,15
67,-17.413786821495922,-17.41381053843846,24,60,-17.413760679320188, 1,15
68,0.5218238309177261,0.5217087207930369, 1,15,0.5219284045289599,24,60
69,7.4165635020025915,7.416562575412565,24,60,7.416564523359316, 1,15
70,-18.45271917287533,-18.4537976119544,24,60,-18.451530415674174, 1,15
71,-18.45269526866997,-18.45377706732122,24,60,-18.451502808239844, 1,15
72,0.1135143548062665,0.11217291149438087, 1,15,0.11471244338625801,24,60
73,-18.512471300629027,-18.513436347971073,24,60,-18.51140756477967, 1,15
74,-20.309296292307128,-20.309310769407613,24,60,-20.309280334713094, 1,15
75,0.6051163157073199,0.6050923616327636,24,60,0.6051424906341025, 1,15
76,8.618789221553593,8.618788842147758,24,60,8.618789639760084, 1,15
10,0.0,0, 1,15,0, 1,15
11,10.,10, 1,15,10, 1,15
4,1,12
50,-30412800.0,-316800.0,21, 1,15,-316800.0,21, 1,15
51,30412800.0,316800.0,21, 1,15,316800.0,21, 1,15
52,0.0,0.0,21, 1,15,0.0,21, 1,15
1,RUN PERIOD 1,  37.62,-122.40,  -8.00,   2.00
2,1, 1, 1, 0, 1, 0.00,60.00,Tuesday
7,7.0125
8,1.25
9,1.25
49,0.0
53,12.067190379399378
77,12.18414005069047
78,-69.3926620471602
79,-66.03257222554333
2,1, 1, 1, 0, 2, 0.00,60.00,Tuesday
7,7.2
8,3.25
9,3.25
49,0.0
53,11.980417063507128
77,12.043106552958804
78,-22.020437465111847
79,-31.661533351470794
2,1, 1, 1, 0, 3, 0.00,60.00,Tuesday
7,6.8875
8,3.375
9,3.375
49,0.0
53,11.89489761572339
77,11.979672233010561
78,-38.941655187213506
79,-32.80037949496267
2,1, 1, 1, 0, 4, 0.00,60.00,Tuesday
7,6.324999999999999
8,1.125
9,1.125
49,0.0
53,11.71174049219353
77,11.830391358414229
78,-71.37936566962843
79,-67.50435921624569
2,1, 1, 1, 0, 5, 0.00,60.00,Tuesday
7,5.0375
8,1.875
9,1.875
49,0.0
53,11.538580508087694
77,11.64456369996575
78,-59.624779998837866
79,-63.044433457797396
2,1, 1, 1, 0, 6, 0.00,60.00,Tuesday
7,4.4
8,3.0
9,3.0
49,0.0
53,11.37737509617267
77,11.486679118934788
78,-60.244102259955554
79,-59.423338100067504
2,1, 1, 1, 0, 7, 0.00,60.00,Tuesday
7,5.4624999999999995
8,3.0
9,3.0
49,0.0
53,11.217286198027853
77,11.325625287999793
78,-59.59129688119786
79,-59.732919313077474
2,1, 1, 1, 0, 8, 0.00,60.00,Tuesday
7,5.4125
8,3.0
9,3.0
49,0.0
53,11.303071024185932
77,11.244974936094902
78,57.51211936074971
79,23.803591144126127
2,1, 1, 1, 0, 9, 0.00,60.00,Tuesday
7,6.750000000000001
8,3.0
9,3.0
49,0.0
53,12.165342845566958
77,11.797607970610986
78,315.27002294762167
79,296.7605538571361
2,1, 1, 1, 0,10, 0.00,60.00,Tuesday
7,8.487499999999999
8,2.375
9,2.375
49,0.0
53,12.916902040667342
77,12.672330356387222
78,296.6474682695141
79,309.7487065613199
2,1, 1, 1, 0,11, 0.00,60.00,Tuesday
7,9.2125
8,0.75
9,0.75
49,0.0
53,13.322714408821685
77,13.273817025722053
78,134.12636486860873
79,158.224239767121
2,1, 1, 1, 0,12, 0.00,60.00,Tuesday
7,9.775
8,0.0
9,0.0
49,0.0
53,13.474576087112524
77,13.484745460220413
78,52.29759017024833
79,52.50769186740884
2,1, 1, 1, 0,13, 0.00,60.00,Tuesday
7,10.375
8,0.0
9,0.0
49,0.0
53,13.672838864924405
77,13.640795962567566
78,76.40119446552357
79,69.41224086084611
2,1, 1, 1, 0,14, 0.00,60.00,Tuesday
7,10.9125
8,0.0
9,0.0
49,0.0
53,14.094796143715572
77,13.972711558375492
78,165.81606312744717
79,155.79271163905292
2,1, 1, 1, 0,15, 0.00,60.00,Tuesday
7,12.85
8,0.0
9,0.0
49,0.0
53,14.465804079067246
77,14.430255454291672
78,134.2426731412034
79,149.95248683060203
2,1, 1, 1, 0,16, 0.00,60.00,Tuesday
7,13.9
8,0.0
9,0.0
49,0.0
53,14.176760059735685
77,14.478432592752046
78,-129.07042448396732
79,-87.43338891572338
2,1, 1, 1, 0,17, 0.00,60.00,Tuesday
7,12.15
8,0.0
9,0.0
49,0.0
53,13.428150980617485
77,13.82734291368151
78,-276.7576545520535
79,-284.561413133875
2,1, 1, 1, 0,18, 0.00,60.00,Tuesday
7,11.1
8,0.0
9,0.0
49,0.0
53,13.110896406425294
77,13.276403532008715
78,-126.77459085486262
79,-142.76874793601309
2,1, 1, 1, 0,19, 0.00,60.00,Tuesday
7,10.7875
8,0.0
9,0.0
49,0.0
53,12.933189468380052
77,13.03355359783685
78,-64.72146570352969
79,-68.8492063889827
2,1, 1, 1, 0,20, 0.00,60.00,Tuesday
7,10.6
8,0.0
9,0.0
49,0.0
53,12.83910384778798
77,12.904389933406259
78,-31.848531454244828
79,-35.74689251039161
2,1, 1, 1, 0,21, 0.00,60.00,Tuesday
7,9.5375
8,0.0
9,0.0
49,0.0
53,12.703626984995145
77,12.800522289909003
78,-54.70642761946176
79,-48.96390314672527
2,1, 1, 1, 0,22, 0.00,60.00,Tuesday
7,9.2125
8,0.0
9,0.0
49,0.0
53,12.578946165615767
77,12.657213150122564
78,-41.028206621448845
79,-45.85168399817695
2,1, 1, 1, 0,23, 0.00,60.00,Tuesday
7,8.4
8,0.0
9,0.0
49,0.0
53,12.416238713488518
77,12.527594594223153
78,-65.84189224017186
79,-59.383437662534305
2,1, 1, 1, 0,24, 0.00,60.00,Tuesday
7,7.1125
8,0.0
9,0.0
49,0.0
53,12.244218200915595
77,12.346520283189133
78,-58.94936418520884
79,-62.61088432674883
3,1, 1, 1, 0,Tuesday
54,12.955490961350185,10.796024442793355, 8,15,16.080892136204586,15,30
55,20.39800955000423,2.7858261648615255, 6,60,56.77322076128519,15,30
56,1.0986846966458506,0.6443344775855873,17,15,1.568894082891354,11,15
57,5.00936360159984,1.6080972955739836, 8,45,7.697369108435602, 5,60
58,12.672068979774231,10.795829337926989, 8,15,14.605189198469697,15,60
59,13.312043453806561,2.785516186893644, 6,60,45.27124590780672,10,30
60,0.9504948404722303,0.40738424455419003, 8,45,1.4979944330244066,10,15
61,4.729965459518103,1.7354557042805216, 8,15,7.488460435449287,17,30
62,12.492369831048313,10.795830008738081, 8,15,14.605189198470825,15,60
63,8.977920102680839,2.8405909194995034, 6,60,18.68534864342089,15,45
64,0.8286380212106635,0.30616010213999334,12,15,1.0469903167607677,17,45
65,4.419424195425012,0.9743813652950389, 9,30,7.851637446168922,17,30
66,12.612438643026493,10.796011318758183, 8,15,15.760667204681528,15,60
67,11.863817262101437,2.7858261648615255, 6,60,46.52295672886462,15,60
68,0.8928860351287776,0.16379861581924243,12,15,1.427122809128509,15,45
69,4.586679572591513,0.974381342238031, 9,30,7.82471935162273,16,60
70,12.645908895631687,11.692311128046954, 8,60,13.495917053103433,17,15
71,12.645926665580186,11.692311128046954, 9,15,13.495917053103433,17,30
72,0.9553395295065888,0.3396024792975677,18,15,1.2156428798032703, 8,30
73,12.61900240315986,10.840213300723446, 8,15,14.849619350092915,15,30
74,10.691347912819625,-2.9385146544188485, 8,30,34.853369608860206,14,45
75,0.8719380873932728,0.2812533904552929,16,30,1.2276742491048154,17,45
76,5.214574336858198,1.1585089780150724, 9,15,8.986927842594797,17,30
10,0.0,0, 1,15,0, 1,15
11,3.,3, 1,15,3, 1,15
2,2, 1, 2, 0, 1, 0.00,60.00,Wednesday
7,8.075000000000001
8,0.0
9,0.0
49,0.0
53,12.176207498975234
77,12.234734150752551
78,-20.02860507978275
79,-25.988774740817043
2,2, 1, 2, 0, 2, 0.00,60.00,Wednesday
7,7.15
8,1.25
9,0.625
49,0.0
53,11.94927021575262
77,12.104179140324735
78,-102.58788563832752
79,-84.67777387153563
2,2, 1, 2, 0, 3, 0.00,60.00,Wednesday
7,5.7875
8,1.375
9,1.0
49,0.0
53,11.67663193643501
77,11.810972014000907
78,-88.31056176536264
79,-98.02828035628062
2,2, 1, 2, 0, 4, 0.00,60.00,Wednesday
7,4.5375
8,2.25
9,2.25
49,0.0
53,11.449294985061764
77,11.588343027257636
78,-85.23208122071946
79,-82.9515696827527
2,2, 1, 2, 0, 5, 0.00,60.00,Wednesday
7,4.9624999999999995
8,1.125
9,1.125
49,0.0
53,11.330401529886862
77,11.413319427700683
78,-32.09483750476307
79,-42.513198492971235
2,2, 1, 2, 0, 6, 0.00,60.00,Wednesday
7,6.6
8,0.0
9,0.0
49,0.0
53,11.344395100585409
77,11.385554637934979
78,3.1461323110541013
79,1.3219693142510383
2,2, 1, 2, 0, 7, 0.00,60.00,Wednesday
7,7.575
8,0.0
9,0.0
49,0.0
53,11.34370833991708
77,11.388107451571834
78,-6.207932359432338
79,-3.700889062022644
2,2, 1, 2, 0, 8, 0.00,60.00,Wednesday
7,7.425
8,0.0
9,0.0
49,0.0
53,11.393035021240642
77,11.380080533491844
78,19.81127095415343
79,10.18306546480946
2,2, 1, 2, 0, 9, 0.00,60.00,Wednesday
7,9.325000000000001
8,0.0
9,0.0
49,0.0
53,11.823483428764371
77,11.601859114764885
78,142.8762377212547
79,128.5410948907725
2,2, 1, 2, 0,10, 0.00,60.00,Wednesday
7,11.287499999999998
8,0.0
9,0.0
49,0.0
53,12.29562421292449
77,12.079135757742412
78,189.43978229782115
79,190.9119497201522
2,2, 1, 2, 0,11, 0.00,60.00,Wednesday
7,13.075
8,0.625
9,0.0
49,0.0
53,12.756314872259509
77,12.565658428127382
78,187.7411473608155
79,180.89040728920116
2,2, 1, 2, 0,12, 0.00,60.00,Wednesday
7,13.9
8,1.625
9,0.625
49,0.0
53,13.165069763883706
77,13.060898567557317
78,145.27611510901056
79,161.7612363444501
2,2, 1, 2, 0,13, 0.00,60.00,Wednesday
7,13.9
8,2.0
9,1.0
49,0.0
53,13.665339249635995
77,13.485092960147142
78,207.76368818583663
79,187.98156792566027
2,2, 1, 2, 0,14, 0.00,60.00,Wednesday
7,13.9
8,2.0
9,1.0
49,0.0
53,13.897785495147517
77,13.908616797524104
78,62.519812328479134
79,91.1857259394435
2,2, 1, 2, 0,15, 0.00,60.00,Wednesday
7,12.837499999999999
8,2.0
9,1.0
49,0.0
53,13.927739619476016
77,14.003036602161306
78,20.13059747395295
79,22.51781076511276
2,2, 1, 2, 0,16, 0.00,60.00,Wednesday
7,12.575
8,1.375
9,1.0
49,0.0
53,13.714811189614126
77,13.948937195494944
78,-88.34497207063858
79,-64.62633770454468
2,2, 1, 2, 0,17, 0.00,60.00,Wednesday
7,11.7375
8,1.0
9,0.375
49,0.0
53,13.094093796897104
77,13.442398546224148
78,-232.32058434497017
79,-234.65687394911657
2,2, 1, 2, 0,18, 0.00,60.00,Wednesday
7,10.7875
8,2.25
9,1.25
49,0.0
53,12.773861633282218
77,12.953694529767164
78,-135.5213293428654
79,-141.59521043014885
2,2, 1, 2, 0,19, 0.00,60.00,Wednesday
7,11.287499999999998
8,1.125
9,0.75
49,0.0
53,12.568454696247457
77,12.66865089761812
78,-68.18805063970449
79,-78.908670017234
2,2, 1, 2, 0,20, 0.00,60.00,Wednesday
7,11.7
8,0.0
9,0.0
49,0.0
53,12.51597970186001
77,12.559664675968712
78,-15.263566753782609
79,-20.86791716992372
2,2, 1, 2, 0,21, 0.00,60.00,Wednesday
7,10.6375
8,0.0
9,0.0
49,0.0
53,12.424496299949212
77,12.50437731382288
78,-40.438783216165135
79,-32.922342082860574
2,2, 1, 2, 0,22, 0.00,60.00,Wednesday
7,9.3125
8,0.0
9,0.0
49,0.0
53,12.203021583206674
77,12.331734362292597
78,-85.22607393922135
79,-80.39774532318972
2,2, 1, 2, 0,23, 0.00,60.00,Wednesday
7,9.2125
8,0.0
9,0.0
49,0.0
53,12.030193460550853
77,12.12530520562192
78,-55.13421642631073
79,-62.24519973626359
2,2, 1, 2, 0,24, 0.00,60.00,Wednesday
7,9.0875
8,0.0
9,0.0
49,0.0
53,11.889972659923426
77,11.98805187850776
78,-53.66072545942902
79,-51.59975259736939
3,2, 1, 2, 0,Wednesday
54,12.611283805132409,10.976442347418997, 4,60,15.54490819039795,13,60
55,17.88825429459272,1.2776148173675852, 4,60,59.07978200018123,13,45
56,1.0436790300960042,0.33590039391182197, 8,60,1.6262946943797933,13,45
57,6.028132651680985,1.6534660593893797, 2,60,14.151516837041456, 9,60
58,12.357920721631656,10.976442347608849, 4,60,14.13438995004932,14,15
59,11.612657146566661,1.2776148195754575, 4,60,29.93361690600017,10,30
60,0.9179613766304948,0.3497886355172882,15,60,1.2669148023326693,10,45
61,5.774846935244124,1.7120861686988795, 2,60,14.132355487961533, 9,60
62,12.263009494954405,10.972548672284836, 5,15,14.134387023921333,14,15
63,9.378455457094622,1.277614819575444, 4,60,21.314937118871878,13,60
64,0.8504287888193994,0.34978863551786493,15,60,1.0568625208187625, 5,15
65,5.434357333787571,1.712086173281802, 2,60,11.73096185662027, 9,60
66,12.364087743352854,10.972548672304853, 5,15,14.877330803358191,15,30
67,11.746670966601704,1.2776148173675852, 4,60,37.020771546363825,15,60
68,0.9118102570516023,0.4709513821643812, 9,30,1.2541092048672127,15,45
69,5.583970655472896,1.653466062022728, 2,60,11.73096185662027, 9,60
70,12.443836452753537,11.671957063277363, 8,60,13.17051027402533,16,60
71,12.44746070201205,11.671957063277363, 9,15,13.17051027402533,17,15
72,0.9423212517019296,0.24442178882164026,10,15,1.2948577899883755, 5,30
73,12.331831189922047,11.052541706129276, 5,15,14.380712351861819,13,60
74,9.127362376491336,-4.781686267409136, 4,60,39.308917075288264,13,45
75,0.8615928021297597,0.1105329755771298,16,30,1.1856621023250826,17,45
76,6.615835905699506,1.4586637624899814,18,60,16.769459717400615, 9,45
10,0.0,0, 1,15,0, 1,15
11,4.,4, 1,15,4, 1,15
2,3, 1, 3, 0, 1, 0.00,60.00,Thursday
7,9.2125
8,0.0
9,0.0
49,0.0
53,11.871025052841254
77,11.90240443213004
78,0.9427041731540875
79,-8.826280527545205
2,3, 1, 3, 0, 2, 0.00,60.00,Thursday
7,9.775
8,0.0
9,0.0
49,0.0
53,11.917227617725757
77,11.932024575570914
78,10.659355436131364
79,12.346659918676187
2,3, 1, 3, 0, 3, 0.00,60.00,Thursday
7,11.375
8,0.0
9,0.0
49,0.0
53,11.914082520397585
77,11.944552736250937
78,-5.561497898966559
79,-2.0463496179213925
2,3, 1, 3, 0, 4, 0.00,60.00,Thursday
7,13.2625
8,0.0
9,0.0
49,0.0
53,12.0482069560429
77,11.974560054624458
78,37.817811563042795
79,29.073795033823757
2,3, 1, 3, 0, 5, 0.00,60.00,Thursday
7,13.212500000000002
8,0.0
9,0.0
49,0.0
53,12.098596832505496
77,12.063177663595683
78,16.851275425313872
79,22.741377761306715
2,3, 1, 3, 0, 6, 0.00,60.00,Thursday
7,12.425
8,0.0
9,0.0
49,0.0
53,12.049025330706247
77,12.071444079747671
78,-7.723394062864124
79,-5.663440470058081
2,3, 1, 3, 0, 7, 0.00,60.00,Thursday
7,11.5125
8,0.0
9,0.0
49,0.0
53,11.974396588179966
77,12.026314919451684
78,-25.24701164396143
79,-23.143941012312418
2,3, 1, 3, 0, 8, 0.00,60.00,Thursday
7,11.1
8,0.0
9,0.0
49,0.0
53,11.990757085462434
77,11.975539077595053
78,5.884869118491302
79,-4.172400773807662
2,3, 1, 3, 0, 9, 0.00,60.00,Thursday
7,11.474999999999998
8,0.0
9,0.0
49,0.0
53,12.339449880178627
77,12.144279114030228
78,127.83682182004527
79,110.27948452554244
2,3, 1, 3, 0,10, 0.00,60.00,Thursday
7,12.7
8,0.0
9,0.0
49,0.0
53,12.89513531641383
77,12.648193949562334
78,228.7318099371403
79,221.60327485821324
2,3, 1, 3, 0,11, 0.00,60.00,Thursday
7,12.6125
8,0.0
9,0.0
49,0.0
53,13.219929123896678
77,13.156713873042934
78,110.77425719869922
79,136.55637000517785
2,3, 1, 3, 0,12, 0.00,60.00,Thursday
7,13.95
8,0.625
9,0.625
49,0.0
53,13.514739799750673
77,13.400344015762284
78,121.34655925386772
79,102.91885240317202
2,3, 1, 3, 0,13, 0.00,60.00,Thursday
7,15.375000000000002
8,2.25
9,1.625
49,0.0
53,13.953741957716366
77,13.818587471624099
78,164.4894439273948
79,167.06211795131742
2,3, 1, 3, 0,14, 0.00,60.00,Thursday
7,15.912500000000001
8,2.375
9,1.375
49,0.0
53,14.422271214469227
77,14.29685044919234
78,175.97807413210052
79,178.45020367998399
2,3, 1, 3, 0,15, 0.00,60.00,Thursday
7,16.1
8,1.375
9,1.0
49,0.0
53,14.479369346690245
77,14.567669729641434
78,6.555109932015217
79,31.07413581988167
2,3, 1, 3, 0,16, 0.00,60.00,Thursday
7,14.725
8,1.625
9,1.0
49,0.0
53,14.145358154593286
77,14.414269116605045
78,-125.13935444101328
79,-105.03277907496108
2,3, 1, 3, 0,17, 0.00,60.00,Thursday
7,13.9
8,2.0
9,1.625
49,0.0
53,13.499851779457861
77,13.853892793261778
78,-243.55675006661542
79,-246.2996232713217
2,3, 1, 3, 0,18, 0.00,60.00,Thursday
7,13.212500000000002
8,1.375
9,1.375
49,0.0
53,13.288843382969139
77,13.396667528329246
78,-80.97961235959113
79,-101.71329582674046
2,3, 1, 3, 0,19, 0.00,60.00,Thursday
7,12.425
8,1.0
9,1.0
49,0.0